/*--------------------------------*- C++ -*----------------------------------*\
| =========                 |                                                 |
| \\      /  F ield         | OpenFOAM: The Open Source CFD Toolbox           |
|  \\    /   O peration     | Version:  v1906                                 |
|   \\  /    A nd           | Web:      www.OpenFOAM.com                      |
|    \\/     M anipulation  |                                                 |
\*---------------------------------------------------------------------------*/
FoamFile
{
    version     2.0;
    format      ascii;
    class       surfaceScalarField;
    location    "1.85";
    object      alphaPhi0.water;
}
// * * * * * * * * * * * * * * * * * * * * * * * * * * * * * * * * * * * * * //

dimensions      [0 3 -1 0 0 0 0];
oriented        oriented;


internalField   nonuniform List<scalar> 
92311
(
0.201278699946
-2.87208585515e-05
0.000792592464601
-0.201535136741
-0.00050744672895
2.03549508342e-05
0.201016294994
0.000827917850967
-0.000585858414552
0.20131391503
-9.69274155576e-05
0.000837788993667
-0.201583185093
-0.000500238602784
3.77659799417e-05
0.201026425497
0.00086544078855
-0.000595428397849
0.201430950547
-9.00313658216e-05
-7.0899769151e-05
0.000906422879491
-0.201699284843
-0.000552678339415
-1.59943215285e-05
-5.36630801858e-06
-2.30156576347e-05
-3.47046811759e-06
5.31136965825e-05
0.201105077772
0.000942253749004
-0.000646253950694
4.08311254035e-05
0.0504586279708
-1.00773153091e-05
-2.5611841425e-05
-2.41771657661e-05
-1.04216483566e-05
0.000171677691792
-0.0504844575915
-0.000165728571658
-0.0504068121619
0.0503622079103
3.28767161888e-06
1.04591473776e-05
-4.41266592922e-06
7.56794516306e-06
0.00022409372496
-0.000219485558859
-7.36575748848e-05
0.000637741360774
2.23323552798e-08
3.71392794091e-06
7.03798163703e-07
-5.2756240157e-05
-0.000604809273723
-1.19621027161e-07
8.64899575137e-05
0.000737507122171
0.000122202824135
-3.29282879931e-10
-0.000697870559908
-3.76815054809e-05
-2.00030462866e-05
6.21870954838e-07
-8.51174331404e-05
-8.95010687606e-05
-3.84809321598e-10
3.47728592262e-11
3.54152247357e-11
3.18607263472e-11
4.10343255481e-12
4.05565304013e-12
-1.10462104616e-10
1.74103505763e-11
2.29970278825e-06
-9.54375884573e-06
-1.56442863828e-06
-1.44093741241e-05
0.000203090968839
-0.000199218486537
-1.62584961272e-05
0.0118971253311
-2.81836300646e-05
1.04561122813e-06
-0.011975965089
0.0119162235692
8.43398006271e-06
-3.32656893317e-06
-0.0118892941068
-3.45206855008e-06
3.00526174323e-06
-0.0002328798758
1.28829670287e-05
0.0503026537792
1.27846447054e-05
1.76772072315e-05
6.56310180493e-06
0.000238914526379
2.34281427667e-05
0.0503053819625
9.41038896917e-06
2.4602972994e-05
6.28749559127e-06
-0.0503570202412
-0.000192127822388
8.38428798029e-05
-3.70956656885e-05
0.0118575991384
-2.71607488888e-05
4.34532290683e-06
-6.68788261083e-05
0.0125756108417
6.45113991767e-05
2.0212262301e-05
-0.0125806194751
0.0125748968748
-6.13463179403e-05
2.20560480977e-05
-0.0125791290072
-0.000118414548571
0.201767644465
0.000979049455559
-0.000520653547803
-0.202107588645
0.200784028745
4.8629099825e-05
0.000762123855812
-0.000578575210778
3.43377584478e-05
0.200609519856
0.000692983980715
-0.000553025276737
-0.000134647126867
0.201835123168
0.000860943241536
-0.000552959983904
-0.202126710611
0.200769970965
0.000105246512872
0.000795348198994
-0.000595759582986
9.45538318117e-05
0.200552242807
0.000719390292301
-0.000562296581455
-0.000162385071799
-0.000165678999884
6.57135048389e-06
0.00115333514593
0.201954660002
-0.000616107136047
-0.20230826285
3.39036713097e-06
1.98042037766e-05
3.06220305215e-05
7.61090886383e-05
6.77653977996e-05
0.200774674787
0.000876168184709
-0.000635248808101
0.050648488157
-6.63555433528e-05
-4.73513917688e-05
-3.7931088998e-05
-6.00576506544e-05
0.000223236354494
-0.0506871051795
-0.000135505779109
0.0502514540926
-0.000232633437534
8.94481880506e-06
2.31701267883e-05
1.24487874837e-05
1.71328379334e-05
0.000241831996078
0.000111191264045
-6.52552820298e-10
0.0007644172698
-8.96579293724e-05
9.52776681333e-07
-2.59576500108e-05
-2.57718089756e-05
-9.36375158765e-05
-1.36512675814e-08
-7.97639967437e-09
-3.11890003362e-08
2.52051788141e-09
9.80226366105e-10
-4.85347649791e-10
-3.85941228995e-11
-4.72677518827e-09
2.82281865323e-10
2.09246353902e-09
-1.8866435504e-08
2.04198183032e-09
-6.2159468089e-09
1.98566736733e-10
-6.53383996418e-09
-0.00020394252603
-4.10327745679e-05
-6.1978935328e-05
-5.73686769983e-05
-3.10059907519e-05
0.0505734301601
0.00030450257296
-1.48228758993e-05
-1.44733192999e-05
-1.06844733059e-06
-2.62916772353e-07
0.0505355277747
-0.000123484601241
-0.0505790315004
6.43834984678e-05
2.9208447256e-05
0.0119503449711
-4.36364890357e-05
6.17657193896e-06
-0.012038998755
-2.62523142519e-06
6.79148017438e-05
-0.011884090551
-3.59112170432e-06
1.2847129364e-05
0.0119559167156
-3.59464652326e-05
0.0126457332799
3.65684316735e-05
-1.64662466799e-05
-0.0126449974123
-0.000224806169769
2.44158965467e-05
1.721849363e-05
1.31658858459e-05
1.93130699872e-05
0.0501941452235
0.000238509218123
0.0502637180568
1.70418489872e-05
2.19038184588e-05
2.46708595304e-05
1.75220441899e-05
-0.000196229551968
8.76549229842e-06
1.06779567997e-05
2.90193399989e-05
2.49712448166e-05
0.0502158928203
-0.000182901289482
-6.66830737421e-05
7.21661709649e-05
3.75368455547e-06
0.012575321977
3.43194200615e-05
-2.79235578888e-05
-0.0118744761514
-7.06087175342e-06
0.0118714246064
5.56256154718e-07
-5.35812876064e-05
4.09113310167e-06
0.0125747312026
-0.0125671408245
-9.90168409014e-06
0.012566786401
6.44877664782e-05
-4.54751249738e-05
0.000668130558373
2.21301967271e-06
-1.03059886902e-05
-8.20647535075e-05
-6.87873834162e-05
0.000111999882621
-1.618032717e-08
2.44981536365e-08
-1.40177055915e-05
7.63761548046e-08
2.19519935168e-06
-8.06617195293e-05
0.000705064941735
0.00010284965231
-0.000690730819854
-9.95022397495e-11
3.17111658636e-10
-1.63702679755e-11
7.80964366355e-11
-1.46560318944e-11
1.72146711411e-10
-4.76053536574e-11
-5.32970371443e-11
-1.83075367106e-05
1.49430580257e-06
-2.30051089787e-05
-8.0315515337e-05
0.00011812687715
-3.00961923215e-12
-3.24086172081e-10
7.89402531649e-12
-4.61860398543e-05
0.0126252142584
3.01380563885e-05
-0.0126356849693
-0.0126225620149
-1.5545735584e-05
4.80530941129e-05
0.0126192950901
-5.47711813294e-05
-9.12514171755e-06
-9.98749430281e-06
0.0118691713703
1.585824607e-06
2.23453090139e-05
0.0119070829068
-0.0118721059893
-1.63904294093e-06
-0.0126198767427
-5.07386098096e-05
0.0119496114889
-3.89319116995e-06
0.0126176327066
3.489221091e-05
0.0126089683389
2.6066953083e-05
4.54580195677e-05
-5.89990847474e-05
-5.19550334083e-05
-0.0126169648819
0.0126102949813
4.57212827725e-05
1.8381770264e-05
1.01603472339e-05
2.24049785064e-06
-1.38300497816e-05
-0.0118752502466
0.0118658014009
-9.551801391e-06
0.012602699118
-6.12396321442e-05
-8.71271371721e-06
4.1795927382e-05
-0.0126011310512
1.53621253268e-05
5.95340729811e-05
0.0125938367353
-6.43441087659e-05
-6.36916310706e-05
0.0125967129518
5.0497253534e-05
-6.18836617004e-06
-2.13828155583e-05
0.0118585918769
4.38436744689e-06
3.5556276397e-06
0.0118971617964
-9.03648499545e-06
-6.30468686157e-05
0.0119085872746
-9.32339015408e-06
0.0125904634245
5.17555941472e-05
2.99148012832e-05
-0.012589522867
0.0125802793379
5.6629527948e-05
-9.94067148959e-06
-0.0118900722929
0.0118867611767
3.01194076846e-06
-0.011857075684
-1.28541745277e-05
0.0118588374941
4.14414697432e-05
5.50368339732e-05
-6.56524309333e-05
1.02518875033e-05
-8.4081171542e-06
4.34431189244e-06
-1.16151101817e-05
5.41026375881e-05
-7.22541731775e-07
-0.0125852874184
0.0125821866899
-4.80814596177e-05
-9.23216307546e-06
-0.0118642504006
0.0118645074337
-0.0118924380168
0.0119242053009
-3.39268164278e-06
-6.54988546832e-05
3.86474218465e-05
-0.0125933858237
9.4202979452e-06
2.87750696118e-05
-0.0118640308184
-3.23004561765e-06
-0.0125875783507
-4.75575631743e-05
-0.0119185071693
1.74950156465e-09
-4.92005003183e-05
5.25888813763e-06
1.89449259996e-06
1.18096783089e-06
-5.26123475639e-05
0.000594453123788
-0.00054699875169
3.50651854703e-05
-9.3078527858e-09
2.09263939699e-07
5.45797595722e-08
-2.09558752693e-07
0.000563270505628
4.27226108413e-07
2.12183747965e-06
6.90477096874e-06
2.34329627531e-06
-9.53873383751e-05
3.48825101448e-05
-0.00051191684677
5.2694613745e-07
5.93808948883e-06
1.11900354205e-06
-4.32343395815e-05
0.00060258015292
-0.000103850859101
5.56220895945e-08
-1.21685320874e-08
-1.43081036973e-08
3.32550083198e-08
-9.93484265321e-09
7.58815914925e-08
2.68897337831e-07
0.000726993854326
1.28092453507e-06
-7.71398683831e-05
-8.76147908291e-06
-1.4555305031e-05
8.95489323575e-05
-7.87274644796e-10
2.4651899376e-08
7.14113903623e-09
1.00990119204e-09
-7.36448968562e-10
9.13446319807e-07
-0.000111908616771
2.42906620468e-06
5.25053040512e-07
-2.17465014598e-05
-8.23150986148e-05
0.000742127142257
7.13067376154e-05
-2.98540102738e-08
4.91708916545e-07
3.64052268134e-08
1.14723283872e-07
5.12296475641e-07
-2.76667162994e-05
-8.99232311566e-05
0.000789595943721
-0.000114617027712
3.52153190648e-08
-1.07253778955e-10
5.03300289292e-05
-0.0126702562259
-7.54666451505e-05
0.0126700858341
-4.07516968727e-05
0.0126741079588
-4.33456391453e-05
3.91713665238e-05
-0.0126881678457
2.74746005062e-05
-1.85329181092e-05
0.011848743063
9.97992187422e-06
7.23495783403e-05
0.0119207405025
-0.0118706942819
-1.31740281166e-05
0.0126665681937
4.70000784848e-05
-0.0126656746516
-3.55680925733e-05
0.0119971493143
-1.48251452983e-05
5.0011149225e-05
0.0126576841998
-2.63575414322e-05
-5.2244587952e-05
-0.0126626268338
-5.03295246344e-05
6.1461979329e-05
0.0126577779031
6.16545512921e-05
1.30943519651e-05
1.28658218695e-05
1.39212460511e-05
-0.0119345830925
-1.58948727976e-05
0.0118393383688
5.8389880041e-05
-5.61994888969e-05
0.0126461999695
-1.57273993637e-05
0.0119154724507
3.7195235471e-05
9.00040452162e-07
-0.0118737435658
3.63335248962e-05
1.71005771233e-05
0.0119735522811
-4.11283467283e-07
4.36883826605e-05
0.0126441375382
-2.01675601977e-05
0.0126500276565
-8.01115354911e-06
-0.0126588037557
2.28514989688e-06
-0.0119313325063
0.0118470620957
0.0126391931331
-0.0120032959879
4.92048234405e-05
0.0125669049018
5.94454964433e-05
-2.52909869026e-05
0.011840575719
1.8822465521e-06
0.0118951969767
-1.0829251641e-05
6.45733701608e-05
1.95195695805e-05
0.0125698543492
-6.62212311259e-05
-2.56177286522e-05
-3.93805573329e-06
0.0118417268934
9.03102235227e-07
0.0125619468105
6.09983880528e-05
0.0118955795419
-9.74448781828e-06
5.64818572357e-05
0.0125561865843
4.57735763667e-05
-6.42272225588e-05
-0.0125614908493
-6.26946547538e-05
0.0125526558533
6.08491706123e-05
-8.77850735947e-06
1.12485691997e-05
-2.20169333419e-07
-2.5282250955e-05
-0.0118335660403
-1.42078621723e-05
0.0118331847768
6.14064906501e-05
-6.26039303763e-05
0.0125501151757
-1.30015776613e-05
-0.0125703860417
1.4677620326e-05
5.83155443541e-05
-4.79866879799e-05
3.14145931378e-05
-4.86282622085e-05
9.31236005362e-06
0.0118961749909
0.0118592555296
-6.37923618786e-06
9.27411212771e-06
0.011844255962
-7.40954074149e-06
1.281149908e-05
0.0125715169502
0.0119043313241
0.0118608951285
3.14397719857e-05
-5.20983242898e-06
2.9376572372e-06
1.43992117246e-05
0.0118876820202
-5.06970548713e-06
5.80408918559e-05
0.0125660901145
-4.36446710298e-05
0.0125586808629
4.2036870958e-05
-2.58951084818e-05
-0.0118344834959
0.011824745498
0.0125530926395
3.31908283555e-05
7.4987619614e-05
8.75887560274e-05
0.000788824869751
0.200418559371
5.01082735062e-05
-0.000584510954833
-0.000204043948476
1.44070347664e-05
2.55692824739e-05
2.24833643912e-05
1.16326277359e-05
0.000229333382788
0.0501278369874
-7.91716486833e-05
9.76778628004e-05
9.11266712928e-07
-2.92435787611e-05
6.22690730362e-07
-2.62394274718e-05
-0.000121996551415
0.000787310893909
-1.73011696312e-08
-8.27426064875e-08
-9.28423268442e-08
2.56433793267e-09
-2.13810053417e-10
-5.54362171904e-08
-4.60850325312e-09
-1.02779725925e-05
1.25062927209e-05
-1.10067266449e-05
1.44230286078e-05
-4.65696638699e-05
0.000246987603213
0.0505008904562
5.57213839591e-05
-1.1996891364e-05
-1.20741559789e-05
0.0119056271748
0.0501580217205
1.82422213931e-05
2.89706999585e-05
1.65968206843e-05
2.94675783141e-05
-0.000164687446016
0.0500931973724
2.98673508333e-05
2.91677762439e-05
2.83130075827e-05
2.47558297026e-05
0.000188807042584
-0.000148719852229
-4.83184762282e-05
0.0118325303592
-2.29055125687e-05
3.32309936024e-06
7.57840655119e-05
-3.97145268554e-05
-4.02478941155e-06
0.0118115317959
-8.47445964445e-06
0.0118055910494
3.7924046659e-05
-3.53867324868e-05
1.21380171262e-05
-0.0118154184567
-9.24062075806e-06
0.0500066956391
2.53773829371e-05
2.68703558436e-05
1.99768178863e-05
2.37861518609e-05
-3.98654750848e-05
0.000163607915628
-0.000133421025775
1.24299090771e-05
1.88471687924e-05
5.53354670524e-06
1.99471157486e-05
-1.51690596567e-05
0.000137510457142
0.0499478188007
-0.000120356166753
6.04750345694e-05
-4.30529280734e-05
6.81843572358e-06
0.0117742824958
-9.7979321522e-06
7.35655080609e-05
-4.00061855904e-05
5.70760549633e-06
-0.0117392569126
0.0117013823911
-1.20777495924e-05
4.22207641666e-06
1.31102357365e-07
1.55614482977e-06
-5.71167630606e-05
0.0006198397307
-6.49640846921e-10
0.000748018459364
1.35284968955e-06
9.38298979237e-07
-2.81023132297e-05
-1.29106784565e-05
5.35695579514e-05
1.80700680722e-06
0.000747375925758
-2.52670420762e-05
2.89158436654e-08
-6.69218731703e-05
-8.40902208957e-05
3.13393773808e-05
-5.60631597616e-08
1.36011565085e-09
1.96891390145e-07
7.18587284565e-07
-4.37489077406e-08
1.32047468679e-07
6.89975105384e-07
-8.88103540598e-08
0.000751884388215
-2.62700946713e-05
-3.21906857673e-05
-5.56935622903e-05
-4.23588177642e-05
1.69771714348e-06
1.11855977863e-05
-2.30434763844e-05
-6.5410558069e-05
-3.91398386827e-05
7.62676125041e-06
1.45359524637e-06
0.000750985382199
-8.41827028565e-06
-0.0126374387616
-2.98283749566e-05
-4.37265678812e-05
6.71275071492e-05
0.0126339816588
4.11043603934e-05
0.012633627336
3.13631237294e-05
0.0118751974616
1.71514414487e-05
4.01329043757e-06
-1.35044179814e-05
0.0118641087667
6.33150065381e-05
1.76818392384e-05
0.0119278202577
0.0126255569392
5.68099726739e-05
-0.0125472791335
2.19691223315e-05
-5.4741052317e-05
0.0125375670989
0.0125374412065
-6.63039010591e-05
5.87101274615e-05
-3.05341732308e-05
-7.37923984816e-06
5.15915707877e-06
0.0118334643349
-5.87638077279e-06
0.0118599937687
-1.18729185176e-05
5.6966086023e-05
0.0125291866481
-5.77186313387e-05
-1.27030739487e-05
0.011860908835
-0.0125503016088
1.57985948903e-05
-4.32473407081e-05
0.012541264685
4.30767219969e-05
0.0125519494416
-3.96451885792e-05
-4.73416021517e-06
0.0118417601871
8.25306510031e-06
-3.35559512105e-05
0.011798492017
-8.76355004408e-06
0.0118520656987
0.0125414174604
-3.69228147696e-05
0.0125250313765
4.24036718882e-05
-4.63659079762e-05
5.00060095606e-05
3.80102129751e-05
-0.0125342772714
0.01252058965
-3.07269954656e-05
-3.0276187869e-05
-0.0118027585955
0.0117988926019
1.65770578925e-05
2.54972825065e-05
-1.81217507007e-05
-8.77205399574e-06
0.0125147805108
4.62341393346e-05
1.64352609209e-05
-3.27086389843e-05
-0.0124989810184
3.73712366973e-05
-3.30190839049e-05
0.0124818105141
3.81581215114e-05
3.12907540755e-05
0.0125025712339
-2.96210417311e-05
-2.50075079024e-05
0.0117917972184
1.62232104837e-05
1.78801208481e-05
-3.24074394596e-05
0.0117671334001
-1.0377490261e-05
4.20547868728e-05
0.0117630405015
1.5929086086e-05
0.0124900003404
-2.91338153002e-05
0.0124655966567
2.18390721843e-05
-2.81082169802e-05
3.48874829981e-05
2.20600656337e-05
-0.012469239128
0.012454206217
-2.82837164627e-05
-5.45561540216e-06
-0.0117371983527
1.41068407752e-05
0.0117189939565
1.19238577076e-05
-4.16755791962e-05
-1.1571143764e-05
3.21509738334e-05
0.0124555761599
1.54612161671e-05
-2.91603068345e-05
-0.000406726018061
-0.0495699596167
0.0495038241821
0.000493985044856
-1.6248239148e-05
-8.77394268271e-06
-8.20281841376e-06
-1.66089533317e-05
2.90484079677e-05
-0.000492250258696
0.0499483440665
-6.15178550726e-05
-4.93279809402e-05
-5.23389521847e-05
-5.9082894356e-05
0.000179354008538
-0.049850921877
0.000437869785718
-0.000773644627042
-0.0501057318282
0.0503734408514
0.000601881111339
-6.69645529835e-05
-5.17780143384e-05
-6.41447493427e-05
-6.99180649845e-05
0.00015690851509
-0.000460894994485
-8.2788151599e-05
-6.99832647158e-05
-6.84111206832e-05
-8.046196677e-05
0.000245033801818
0.0503836865297
0.000353971475586
-0.0502201291525
5.48071153314e-08
-3.03347341612e-05
-0.000397369020704
0.000367490744969
4.95107909875e-05
-7.41557373074e-10
2.77516742919e-07
6.37376992547e-07
5.4726222258e-07
6.58016300612e-08
-0.00034145747705
0.000339786561289
6.54936305951e-05
1.33629572595e-07
1.3926712483e-06
2.19463439546e-07
8.094974997e-07
-4.75517565771e-05
-9.96100198682e-06
-5.36985061551e-05
0.000462650916165
2.4085326222e-07
1.30037983548e-06
2.91806699095e-06
1.3106262902e-06
-0.000493059207629
3.91990401062e-05
-6.16091295382e-05
-8.91701483551e-05
-0.000437268405809
0.000410462165422
7.91390719596e-05
6.83044184328e-07
2.75424094882e-06
3.29075671166e-06
8.30745767129e-07
-5.94411135795e-05
-7.21741832752e-05
4.52285868485e-06
5.98323764192e-06
1.33732322566e-06
0.000459197837364
7.877217428e-05
6.09465327751e-07
-0.000485324772924
-2.45850625392e-12
-2.65413068588e-11
0
1.12838394138e-11
1.69087566154e-11
8.0721708358e-13
-3.77918775436e-28
-1.19727215677e-29
-5.04526520949e-11
1.00573180555e-11
5.29638043146e-11
5.37137041351e-12
-1.09783116894e-09
-7.76618139534e-11
-3.94401043995e-13
-2.06169508751e-10
-3.23449978992e-09
1.16172098674e-09
2.68753380308e-10
1.36711787061e-11
2.31075831053e-12
2.35068735837e-13
-1.48246911964e-08
2.81815325082e-10
-2.19822066293e-09
-1.24395380944e-09
-6.00446201149e-09
3.07198102056e-10
7.64135270789e-09
-3.11673907264e-09
-1.23766412333e-08
-3.58435039183e-08
-7.99464352804e-11
-4.3042157196e-09
-1.46038909241e-08
-4.03731522308e-08
-7.47065048872e-08
-1.23690688656e-07
-1.58969440689e-07
2.35839445089e-08
-1.31613465967e-08
0.000185493706215
-1.25411551814e-05
-9.26362162467e-06
-8.38325338181e-06
-1.45670148824e-05
0.0493844699259
5.5644604989e-05
-5.0874945436e-05
-0.0495299825912
0.0494556669717
0.000283672810563
-5.9050718341e-06
-6.69044296057e-06
-3.29429284911e-06
-9.6427548909e-06
3.24287884274e-05
-0.0495606892154
-1.39523682938e-07
5.49361437009e-06
-0.0122734174951
-1.63285000963e-05
0.0122759958438
3.22425434075e-05
0.0122778487166
4.3199513631e-05
-2.41316697515e-07
7.72241214357e-06
-2.91214704351e-05
-0.0122753971534
1.92370175796e-05
1.27400629129e-05
1.55589509868e-05
1.13955739351e-05
-0.000247595447626
0.0123483526299
0.0123205061996
0.0122934351804
0.0123420572948
-6.65816798229e-05
5.3098065794e-05
5.77358032812e-07
-5.77937981855e-06
-4.04011248996e-05
0.0122741483458
0.000347867633767
-2.55805441434e-05
-2.11160307295e-05
-2.35906212561e-05
-2.63438520425e-05
9.2541346984e-05
-0.0496300870689
0.0497079208889
-2.9512071289e-05
-3.74948194464e-05
-2.80443337021e-05
-3.79040006326e-05
9.31405872836e-05
-0.0497042330393
0.000384050614866
0.0122745617188
-4.47254660455e-07
2.51183169369e-05
-0.0122729324735
5.05655126944e-05
0.0122670006315
-1.06135991118e-06
5.13330970221e-05
-5.43677568227e-05
-0.0122585438894
5.74233289091e-05
0.000694903202957
1.95136557275e-07
1.74120366378e-05
1.77454197804e-05
-5.90517616198e-06
0.0495333928086
-0.000175699367658
-0.000152150981687
-0.000171942781687
-0.00014563118457
-4.44912005657e-05
-1.29762403088e-05
-3.08562598877e-05
-1.98368119344e-05
0.0497493320346
-1.72965240035e-05
-2.40217424965e-05
-2.03693481628e-05
-2.72105197113e-05
4.94736505817e-05
0.0499105730381
0.000613307816804
-1.1905649855e-05
-1.89437557337e-05
-1.60087637901e-05
-2.01892570786e-05
-1.2273769572e-05
9.20749810186e-06
0.0122690839081
5.52364617982e-05
0.0122657315519
-4.27273093259e-07
-6.25653196164e-06
-0.0122835246326
0.000107415008739
-8.91446940347e-05
6.532430385e-05
2.16851131407e-07
2.61105949158e-05
-7.98003951813e-05
0.0122442962862
0.0122514067949
9.7243827278e-05
-6.89841298024e-07
3.2138645664e-05
-0.00011154003597
-0.0122809078019
0.0502082228008
-7.81457341674e-06
-1.8227374668e-05
-6.05074356344e-06
-3.36890244266e-05
-0.000941026590568
-6.44462537996e-05
0.00089196502919
-1.00468406865e-05
-2.01697795872e-05
-2.67623484662e-05
-3.61688732622e-05
0.050815861486
-0.000134914814712
-0.00127174487697
-1.78073200207e-05
0.0122407519144
0.000125181677139
-0.000115680842172
-2.00097015635e-07
-1.19841002763e-05
-0.0123319756491
0.000131494157045
0.0122185687306
-0.000172563723358
0.000105553524257
4.13803546009e-05
1.2089323472e-05
-0.000138534380507
0.0121782880068
0.00012895362451
1.44855304242e-05
3.3615646541e-05
-0.000195610630582
-0.0122696752882
0.0121619232739
0.000514165093103
-5.79098887942e-05
-5.09971662548e-05
-5.37219968539e-05
-6.46090696254e-05
0.000168856885862
0.0501783793666
-5.06241656166e-05
-6.07017877659e-05
-5.2799493857e-05
-5.91317103865e-05
0.0001477806145
-0.0500235706662
0.000434832459881
3.85016950894e-05
0.0122325349693
3.39534998503e-05
-0.0122666473878
0.0122438985891
-6.67781169997e-07
5.31678225302e-05
-0.0122648371573
6.82049058295e-05
0.0122139003329
-1.63135677833e-06
7.7484289727e-05
-6.54203503611e-05
-0.0122154338941
5.5749445141e-05
0.000618546151858
-6.68559636421e-05
-5.68808785844e-05
-6.2996818145e-05
-7.85194112598e-05
0.0507136441715
0.000198232335201
0.0503615930999
-5.91120259022e-05
-5.52717129734e-05
-6.07171825083e-05
-5.72670059431e-05
0.000189991390184
-4.52551882955e-05
-5.1095397663e-05
-5.68870404267e-05
-5.21165910416e-05
0.0506148920822
0.000464118273433
0.000106151579366
2.36553163483e-05
0.0121572619629
4.65353598936e-05
7.53169243186e-06
4.70498139353e-05
-0.0122380676105
5.59726492945e-05
0.0121656921165
5.01322615313e-05
7.39340623501e-05
3.06235111199e-05
-0.000101966810188
0.0120653213466
5.96622789959e-05
-4.65152189665e-07
5.54420402981e-05
-9.71358472101e-05
-0.0121396219085
0.0121337484695
3.60284380411e-05
0.0120684542399
7.97353112219e-06
-0.012213849054
5.80694834408e-05
-0.0121184705936
0.0121269221927
-6.59264552794e-07
2.64268127471e-05
-3.0001229603e-05
1.02437380118e-06
4.17629413937e-07
1.09149923468e-07
0.000344378110448
7.91914931547e-05
-0.000372189729649
-8.15712395367e-09
0.000360783659208
1.74751423669e-05
3.22804356595e-07
1.07043884443e-06
1.67001722608e-07
-0.0003919010946
-1.37030829376e-09
-9.8047779382e-10
2.23435009188e-07
1.23415974805e-07
9.59492084269e-09
1.21883510109e-05
0.000344260179291
-5.36168056505e-11
1.20762457756e-09
9.71171881804e-09
-6.68272707115e-11
7.55865136306e-10
5.82189425052e-11
3.30748358307e-12
4.34562087142e-10
-2.86662650061e-12
-1.13612786225e-12
1.63604276907e-10
1.30706470092e-10
1.04675916256e-12
8.70223150674e-12
1.88426232838e-11
5.19373415569e-13
2.95076440443e-13
5.70502576796e-13
-2.07140639736e-13
3.44591299157e-11
2.27183609324e-10
-2.57119041601e-08
-8.32984112674e-11
2.55860560968e-12
3.81172481658e-12
1.49915902538e-12
7.51779981425e-09
1.16478227214e-08
-2.54572075822e-07
4.60632556503e-05
1.24275976649e-06
5.85164475498e-07
1.50253711315e-08
-9.52926776188e-11
-0.000426288874911
0.000439741277472
8.52825482657e-07
2.58999029369e-06
-3.77572514179e-06
-0.00047519313175
-1.18215194033e-09
5.09481722554e-05
5.83954296028e-05
2.85387942661e-08
-3.4515947115e-06
8.05313480751e-07
3.95121830054e-07
-3.92821312115e-05
0.000410873673345
3.32669633059e-08
1.06088779209e-06
8.29058167668e-07
3.39068460168e-07
1.14667000951e-07
0.000385822988955
7.21227679112e-05
9.42277922268e-07
8.68338989383e-07
-1.43410361197e-06
1.03082114288e-10
1.60957429176e-09
1.66100867621e-10
7.36229524755e-10
1.22574657729e-10
9.2690925533e-09
2.71215122659e-08
-1.79003874931e-09
5.67841676026e-09
1.79461048195e-08
6.46924233576e-05
3.71928589895e-07
1.36153978436e-06
5.78870701203e-06
-7.35792231951e-05
0.000344099786781
-4.40864161752e-05
0.000372977619994
2.78033997555e-07
6.66330341869e-07
2.64633665011e-06
5.00472202981e-07
4.03915909419e-07
9.92170287597e-05
5.65796988965e-06
2.99534907978e-06
-9.77398347308e-05
0.00037103193705
2.41555774921e-09
3.87095685068e-09
1.78170795732e-08
1.89426393094e-08
1.93911892817e-08
2.79463592737e-08
4.89810446455e-08
7.9102765735e-08
5.44959208199e-05
4.10258290633e-07
1.77976741212e-06
2.08762018162e-06
-3.24956619026e-05
4.63183199922e-07
0.000482550897732
2.66551290612e-06
4.22858011852e-06
-3.06372041552e-05
-0.000502575704515
3.16265377588e-05
6.27907412362e-08
-2.97405981777e-08
5.25456744547e-08
1.12415418714e-07
1.481353045e-07
6.08188098099e-07
-3.6743185965e-07
1.81977147373e-07
0.000106320678215
7.88751896011e-07
3.22269349651e-06
6.78599424752e-06
-0.000123230699201
0.000399606996788
0.000448880689127
8.60668536225e-07
4.04922986574e-06
4.31740137652e-06
8.89256099184e-07
7.72557868369e-07
6.27225322524e-06
6.55884225565e-06
-9.80150870037e-05
0.000417984070193
0.000118637195562
2.66159470845e-07
1.5983212536e-07
1.47919630959e-07
3.70240097149e-07
8.84841488496e-07
2.88940452685e-07
7.43560912535e-07
2.2078340058e-07
0.0123845148406
-6.41393676801e-06
-3.32585383345e-05
3.87885297969e-05
-0.0123961696846
3.47764842286e-05
-0.0123869006829
0.0123679231409
-1.96530909243e-05
-6.42660051171e-06
2.35902609997e-05
3.01926176664e-05
-0.0122538353207
2.75446908547e-06
-0.0122526949931
7.12682149335e-06
0.0122555486562
4.69926455782e-05
0.0123666442994
2.42426275402e-06
-0.012263001982
-1.82442645143e-05
-0.0123929056125
0.0123908421771
4.5479293489e-05
-1.37068648021e-06
-0.0124020663748
-5.89317907524e-05
-0.0123998627369
0.0123886103284
7.12161684944e-05
-6.82625257922e-07
-0.0122563786499
0.0122635520655
2.04105310438e-05
-1.4812106241e-05
3.75249015371e-05
-0.012247446358
0.0123749103255
6.03260660795e-05
-0.0124039455631
-0.0122601112313
-0.0123650423134
8.81270165643e-05
1.41780278631e-05
-6.64649977915e-05
0.012348412743
-6.94042993267e-05
0.0123798116261
8.51496052808e-05
-8.38286337045e-06
0.0122820822019
-1.18450238213e-05
-2.27496177305e-06
-4.72726144407e-05
6.06413003979e-05
0.0122843615902
-5.24056862068e-05
0.000106900423903
0.0123700692712
-1.94142697514e-05
0.0122749743504
-7.1528186208e-05
0.0124194379432
-2.13352386663e-05
7.20197442897e-05
-0.0124241658562
-0.0124131044272
8.01528623201e-05
0.0124081378428
3.64017514579e-05
5.53923498695e-05
-0.0122449830692
2.80837184164e-05
-0.0122455797828
4.9445671472e-05
0.0122459001424
-0.0124114601156
8.4323545773e-05
0.0124170140384
4.51873187927e-05
-0.0122578208457
0.0124328829239
7.03379753547e-05
-2.56825814059e-05
-0.0124350133595
-8.6463761555e-05
-0.0124474401966
0.0124530994136
9.46312688711e-05
3.17132783529e-05
-0.0122421611305
0.01224565346
6.65356311971e-05
-2.73768260987e-05
-0.0122259937067
4.84374438848e-05
0.0124345698925
-0.0124355969117
8.72169009045e-05
-0.0122569457059
-0.000113385511227
-0.0124205507746
-2.47041691771e-05
0.01242442882
0.000117891968871
0.0124027868374
9.08739786441e-05
1.21013895974e-05
6.92514984078e-05
0.0122866864221
2.90897448297e-05
0.0122731610446
5.99187582074e-05
0.0124002893067
9.99741681307e-05
0.0122676090261
7.66512070808e-05
-0.000138937470991
0.0124304246464
-9.06309282636e-06
0.000142090962644
-0.0124067867378
0.000161700779931
0.0124209202007
-0.000164760271984
-2.22893453252e-06
8.70597920893e-05
-7.04378485459e-05
3.33442209673e-05
-0.0122513186557
0.000106658450724
0.0123002385174
-0.000129874359037
0.000166282092172
0.0124533523637
9.35375699812e-05
-0.0124429943097
0.000115355666534
-2.23326922467e-05
0.0124505030057
-0.000107410285893
0.0124551839048
0.000107396735736
3.62617361745e-05
0.0122760721043
4.2123957506e-05
-7.64861191838e-05
0.0122562406696
6.98922208576e-05
0.0124666868584
0.000118829629077
0.0122739484012
0.0124573202018
0.000133904701213
-1.05619705554e-05
-0.000162249052459
-0.0124878420475
0.0125093573022
0.000153938378213
3.82832625759e-05
-0.0122476576215
0.0122909390337
4.49784056122e-05
-8.32202876152e-05
8.10612681121e-05
0.0124836389172
0.000137597623467
-0.000239382794892
-0.012486919555
-9.49812357683e-06
0.0125246479111
0.000224262921134
-1.33217044949e-05
0.012439541025
0.000192725258045
-2.57016208487e-05
-0.000203450695589
2.89330618591e-05
0.00015493229206
0.0122960694244
-0.000130742006163
1.92591037147e-05
0.0122997119226
0.000125474217597
0.0124904183794
-1.41723165867e-05
-0.000247078237106
0.000194730390574
-1.65413030229e-05
0.0122390838439
0.000143488662674
-0.000264880977735
1.20500766686e-05
0.0125715442901
0.000243445994887
-3.80196819699e-05
-0.0125832275652
0.000263409256667
0.0126801608171
-0.000308611635457
-6.36288000122e-05
2.42187061094e-05
0.000198256731157
-0.000153437271212
-0.0121282099748
9.87344351737e-05
0.000166622268582
0.012188307766
-0.00027039061602
-6.27718962005e-05
0.000155497045173
0.0002712056532
0.0126751345278
-1.27791271959e-05
-0.0125184224516
0.000196643889949
-2.03881316254e-05
0.0125582751167
-0.000191101188039
0.0125218785796
0.000172324750182
3.75117132638e-05
0.0123009802648
7.65550753341e-05
-0.000114518023022
0.0122239463849
0.00011282347291
0.0125691440052
0.000192342239558
0.0122388675891
0.00019848004285
5.07230236511e-06
0.0125876444589
-0.0126326939134
-0.000252941616875
0.000215455005488
0.0126835518204
-0.0121164872499
0.000111995774285
0.0121697885223
9.41140436461e-05
-9.07908582e-05
0.00012114797032
0.000202526764861
0.0126815361282
-0.000112148268389
-0.0124890581363
-6.96191955639e-05
0.012503507779
0.000105811175141
0.0124698651935
9.38590190613e-05
-0.0124672247612
6.07579053927e-05
6.69314208821e-05
0.0122350662329
8.54479480487e-05
0.0122503314283
-0.0122182872745
4.85446772379e-05
0.012485007188
-0.0124676401391
9.88678449191e-05
0.0122513192795
5.44198277714e-05
-0.000134505235443
0.0125070623403
-4.07446154842e-05
0.000113774097627
-0.0125090250992
0.000133339864503
0.0125317440312
7.44994794666e-05
9.8503618418e-05
8.01982685377e-05
-0.0121703364381
5.32313085103e-05