/*--------------------------------*- C++ -*----------------------------------*\
| =========                 |                                                 |
| \\      /  F ield         | OpenFOAM: The Open Source CFD Toolbox           |
|  \\    /   O peration     | Version:  v1906                                 |
|   \\  /    A nd           | Web:      www.OpenFOAM.com                      |
|    \\/     M anipulation  |                                                 |
\*---------------------------------------------------------------------------*/
FoamFile
{
    version     2.0;
    format      ascii;
    class       volScalarField;
    location    "13.05";
    object      p_rgh;
}
// * * * * * * * * * * * * * * * * * * * * * * * * * * * * * * * * * * * * * //

dimensions      [1 -1 -2 0 0 0 0];


internalField   nonuniform List<scalar> 
28582
(
19540.3896598
19539.9468118
19540.5149005
19540.1318732
19540.7293291
19540.4935704
19540.5449049
19541.1226934
1362.9902981
1338.50852658
-0.109852936501
19540.9946967
16859.5580281
16887.6407282
19540.9050065
19542.4840114
16898.3647664
19513.1811716
19513.78152
19539.7744706
19539.8273769
19540.2470788
19539.534472
19539.9235184
19540.2606284
19539.0136838
19539.9859591
19537.4832184
19540.4303309
1353.40789534
-0.120492831756
-0.0745782345122
19537.7646493
19538.8441142
16916.4887935
16903.032821
19504.1651672
19539.7533535
19541.5947117
19540.2967866
19511.0605413
16825.3541226
19510.9702594
19502.0206444
1361.11935811
1348.96121169
5.08852661737
7.70022697991
1348.13909889
5.4376681547
19503.3334393
19503.3251717
16868.8120504
16865.1574913
19502.3663925
16870.9058933
19504.4293751
19505.1167854
19509.0471925
16878.8250234
16885.080201
19507.8792642
16877.2631744
19506.3222956
19513.6829678
19512.1612674
16895.018709
16894.5689426
19511.1183269
16903.8973167
19513.5674221
19512.9443271
16886.325171
16912.3327355
19514.0290613
16896.5647539
16919.0229583
19513.555885
19514.9045491
16937.7919327
16949.560988
19514.9367647
16959.224613
19516.1823733
16952.5342087
1322.84240539
6.88499268584
1258.74816444
1286.87482924
6.65691171028
6.38365599251
1350.93464952
5.83523236664
7.76791483437
1358.73013213
6.62086003781
1364.39777879
6.84469219653
19502.3215839
19502.3128521
16913.4024225
16881.7741467
19502.2997898
19502.2475341
16882.77121
19503.1487924
19503.6030172
16909.1043173
16880.9488573
19502.898817
19504.2915508
16878.5585625
16850.2996194
16858.9356939
19505.3248189
19504.649289
16868.9693029
19505.7686523
16863.388417
19511.1647015
16867.8873524
16889.0163037
19507.5625459
16845.8397402
19507.8173862
16859.9240662
19503.7237825
19498.7715778
16833.459794
16822.0804875
19503.5495739
19499.5305455
16841.2094823
19506.6373835
19511.6515355
16906.2081708
16922.0706273
16882.4204322
19506.2056135
16862.9342046
16849.7541614
16817.5837546
19498.2625651
19501.5263383
16810.3594889
19497.909608
16832.363624
19539.0383101
19539.1272336
1376.97664741
-0.0748335553912
19539.4340967
16865.6152165
19539.4247912
19539.208246
16809.196582
16772.7591601
16662.1217278
19539.1787272
19539.5960977
16654.3797294
16670.445533
1342.20136234
1379.70782336
1406.59370465
5.6943649108
6.37772012419
5.74389355212
1431.81084327
1449.16000065
19508.0777177
19506.4325325
16874.7294872
16878.6134462
19506.7838621
16886.9795039
19507.8873365
19492.4885326
19494.0354905
16792.9099196
16799.892335
19490.2364926
19495.7663493
16774.9777648
19492.2962569
19495.3962228
16781.5125947
16725.1637402
19495.2078381
16754.9354748
19493.1160617
19491.4786257
19492.8207161
16706.278298
16686.5025509
19492.1763483
16726.7100475
19491.8484697
19496.4858728
19494.6852953
16690.1149692
16659.7570804
19493.8655756
16695.1671915
19497.2502107
19499.2889042
19500.4142157
16702.6908948
16665.8024686
19501.3990017
16702.4090233
19499.1774285
19561.2498595
19554.9790938
19552.8175762
19547.9435065
995.496001075
1031.76832657
1013.91664234
1065.22028668
1102.5888054
-0.137988559528
-0.167697385232
-0.0958959341342
-0.152079899019
-0.100523787508
-0.11863300455
19561.9889998
19561.4154917
17697.1484778
17734.2036176
19563.816617
17744.0799964
19559.9484327
19557.8351103
17748.7072827
17736.6305867
19562.5583433
19558.1336061
19558.3069486
17756.180257
17789.4586722
17730.9438442
17705.5058484
19557.4880413
19554.5720055
17798.2804976
17752.727159
17680.8275505
17513.1291258
19554.25157
19551.1145579
17669.1513324
17617.5934634
17414.6998839
19550.2167898
19549.6164555
19547.5452747
17589.2491016
17441.0386002
17385.5629012
17283.1237055
17361.9793524
17265.9548333
1037.49793063
1014.61650499
1020.05646688
0.440723494068
0.490903249047
0.417320580515
0.396924375176
0.600361778831
2.3836864216
0.433823477166
1.20447742518
986.615802245
978.41013257
1010.16015461
989.182530789
1008.64766257
0.530721652252
0.470670267134
0.926926790929
0.820251651621
1062.2481479
1038.54338483
1077.35798026
0.437224092849
0.814685261008
0.857709479347
1.4671646718
1037.98367584
1066.18360725
1.38994773209
1.30302642216
1.65340242907
1096.80883532
1092.26391208
1119.35967901
1.39468246167
1.74530306875
1.78146095105
2.16585177696
19546.5131612
19549.8072075
17682.2384608
17707.3230103
19549.9213137
17692.519337
19546.4261815
19546.3952204
19549.6423262
17720.4036715
17726.6619031
19549.687421
19546.6118408
17707.7439565
19554.0350945
19551.6381305
17733.9574683
17758.8859103
19552.3103136
19553.2228189
17751.3758983
19546.6244266
19549.6310903
17741.4044228
17761.4713815
19547.0582799
19548.9600137
17759.6173697
19545.3565506
19545.3464844
17758.8977518
17744.736797
19547.1799943
19543.8946397
17758.0834222
19551.7497862
19551.0403112
17764.84156
17765.1917698
19552.3191245
19550.740032
17768.8064709
19552.7133909
19554.7363268
17776.7986244
17776.8294247
19553.7352139
19553.4349939
17773.4229506
19549.7518145
19546.4311593
17759.13046
17726.3855148
19548.8879096
19547.1371585
17757.6368598
19550.5441765
19547.8447503
17756.3128147
17717.6411368
19550.8468078
19547.8187055
17757.2471798
19553.3007143
19555.3377171
17805.2774369
17779.5692756
19555.0759382
19553.8227271
17778.0032632
19551.3848057
19549.2332743
17790.8004297
17685.6450096
19553.4052623
17747.9960417
19546.7115373
19549.9741538
19547.4759474
17741.0380375
17641.5396685
19550.8860422
19546.1150751
17721.3906496
19547.8189503
19539.3857049
17607.9283987
17582.111213
19543.6316341
17674.2847384
19543.3486294
19541.403657
19544.0951168
17657.1132883
17608.8253284
19544.2082814
19541.3427527
17588.2435245
19541.2121483
19543.987693
17637.5721943
17535.1639854
19544.2494188
19540.5266935
17564.6245956
19538.6948228
19536.0053148
17467.1968562
17442.6939218
19538.0395989
19536.6540906
17497.6748767
19537.8548116
19543.4195014
17549.2326727
17500.6024179
19541.899939
19539.4245209
17462.0653806
19535.6728699
19536.0823709
17498.3087764
17367.0530421
19539.6172886
17417.6357592
19532.6108612
19535.9217446
19535.3536533
17434.615275
17355.9421764
19537.2879861
19534.2710444
17399.5165854
19534.1395971
19530.7665454
17319.1816396
17322.3357987
19532.7627479
17361.3651323
19531.7339923
19533.7353646
19534.9002882
17334.1245483
17351.1126892
19533.7895063
19534.983097
17323.3523872
19530.5517403
17302.1649445
19532.4044761
19538.6163959
19538.0114934
19538.0438335
19541.3021643
19542.8404428
19554.1543082
19538.6391703
19538.1251538
19538.1764766
19541.1270851
19542.361991
19554.3538216
19527.1482176
19530.4234202
19527.3939538
19532.9931492
19537.630723
19541.1466432
19546.8368114
19527.1373833
19529.3964912
19531.4031344
19533.3148237
19534.7610164
19536.1020596
19536.7040483
19537.2413259
19551.2405271
19534.8491575
19533.5956329
19533.8375014
19534.8905791
19536.2171976
19537.0721188
19537.5104802
19551.7252936
19537.8758477
19536.3897871
19536.0342123
19536.5953676
19537.6164156
19538.5303529
19539.6768203
19553.5946012
19538.718905
19539.6998507
19541.3096179
19553.9473959
19525.1217588
19527.67363
19529.3225765
19533.859583
19539.240994
19546.1587091
19604.8323931
19429.2308008
19529.1623166
19530.7762029
19534.9509656
19536.2827036
19536.3947276
19535.5582767
19534.4761055
19538.9624854
19533.8988652
19533.9246761
19534.7087559
19535.3046472
19535.6563141
19535.6973237
19535.3967873
19545.8625168
19537.535179
19536.4339223
19536.4029655
19537.064932
19537.6458397
19537.7853144
19537.8100606
19552.0931594
19538.7372764
19539.4410518
19540.4689697
19554.0792371
19522.8958976
19525.9189905
19526.1815983
19530.6848519
19534.1628387
19531.791736
19524.7605563
19462.2874425
19527.9071516
19530.5515053
19528.5612539
19531.1277515
19531.7212817
19527.8005218
19516.2612174
19508.3438147
19533.0750442
19532.6863322
19533.4037908
19533.6681733
19532.4776243
19529.2835848
19522.4755481
19540.700006
19539.2613206
19536.955942
19535.7938164
19535.7454963
19535.7552188
19535.0525693
19533.5475062
19529.5914392
19547.1851429
19538.512537
19538.1198412
19537.8936269
19537.2999136
19536.5889716
19534.9938364
19550.9330813
19538.6635453
19538.0676118
19552.0864996
19524.6690407
19525.2883476
19527.13718
19529.0764415
19535.1090399
19537.8474705
19534.5253569
19507.8965837
19528.1369745
19526.8376467
19529.1026657
19529.9655487
19532.0398941
19532.7368835
19531.3713598
19527.3078182
19515.2824274
19546.0381077
19536.3383017
19532.1225512
19532.11598
19533.3471624
19533.8363751
19531.7428196
19529.4693591
19527.9240552
19530.2207421
19539.0864352
19535.8763051
19535.3027921
19535.8122445
19536.072207
19534.8560248
19533.3882074
19533.1238183
19538.6471735
19538.1321721
19538.2720703
19538.0880103
19537.1278523
19536.7281257
19537.8293137
19543.7193917
19538.9831758
19540.5843396
19545.69115
1350.32855373
1374.88525817
1326.4256529
1295.39078561
1280.45022027
1338.41764295
1447.09040058
1544.08367036
1104.66153608
1222.7838296
1278.35707452
1285.05119983
1317.05404543
1288.89070219
1326.56040121
1372.49776397
1440.17775704
1468.52044845
1129.44398522
1187.49765665
1205.70563316
1243.20656258
1307.40839375
1352.99930564
1373.6446541
1409.88125159
1432.17421952
1440.74109528
1190.12407443
1217.36222867
1265.7115127
1305.82056291
1349.63595983
1379.00472192
1394.14034698
1422.1257898
1411.68423071
1311.80724298
1321.27352694
1333.01127865
1377.4297522
1400.26012998
1417.77859063
1391.22166708
1413.13025817
1434.95437835
1407.61969997
0.228279563398
0.286734525366
0.523132338103
0.800319410965
0.874722874044
-0.107715238186
-0.121639896118
-0.0662305669832
-0.171217950231
0.544464793105
0.540594600083
0.319207370655
0.126460824937
0.268596311564
-0.115304098817
1.0998528302
-0.0904992702632
-0.140022387076
-0.169565862034
0.360664576547
0.546234653173
-0.14468222737
-0.201542882669
-0.0718909544481
0.0371322653057
-0.0729769546614
1.24851680949
-0.108084599167
-0.211666229424
0.526650958871
-0.141303904678
-0.149412963466
-0.098664742069
-0.0492427074245
-0.0749384325388
-0.0309013294459
-0.10223183581
-0.191194827727
0.618247104683
-0.0888592703203
-0.0419821544634
0.841757316966
-0.0890189560347
-0.150249696171
-0.197535079781
0.630317384631
-0.116583291399
-0.210965270836
0.738849240863
19528.9388563
19527.543887
19529.3085977
19526.3553567
19528.2658437
19527.1631433
19528.576588
19531.3319618
19530.9891936
19532.1686058
19529.664104
19526.5942318
19529.6661602
19529.1607021
19530.1780523
19531.8596505
19531.5839657
19528.9028941
19530.055857
19531.2969313
19531.5682435
19532.4642869
19532.1601472
19533.1505299
19531.1613416
19531.4880598
19532.5639635
19533.7377507
19526.7735693
19526.5979997
19527.6690153
19523.4274355
19525.4923815
19525.1385655
19526.7914962
19527.8177535
19528.2731163
19529.6336659
19526.5251703
19526.7661069
19527.538273
19527.2555381
19529.9188536
19530.8333467
19531.3670233
19528.2172242
19529.542966
19530.3205365
19530.6886592
19531.2136838
19532.3540598
19536.0282734
19530.5413512
19527.0589857
19531.2641511
19534.4593685
19524.7574446
19524.996099
19526.6880422
19524.0378143
19525.1724896
19526.4757064
19527.3942995
19526.2680038
19527.4897143
19527.7727741
19525.6211366
19524.815874
19527.6552693
19528.8067425
19529.4855062
19529.8043802
19530.3373149
19527.5598488
19528.9146539
19529.0713639
19529.8699886
19526.7520541
19530.8755176
19532.8037574
19529.6215932
19528.874932
19530.5021558
19532.5440676
19522.4543614
19524.5209115
16569.7094826
16648.7683788
19525.0634632
19526.0412485
19526.4813193
16610.7368506
16495.9710456
16672.4587884
16655.9417396
19526.5752595
19527.0198467
19527.8928169
16440.1616434
16463.5718122
16639.3438032
16626.3379932
19527.1714308
19528.484794
19528.7832713
16521.5381297
16712.5009657
16657.36965
16775.7213549
19532.231098
19530.3182833
19532.1986924
16755.8587903
16867.3705392
16772.5863585
16809.0639145
19536.8169275
19533.9171951
19534.7946865
16890.9867271
16928.6708814
16817.4070274
16788.3265138
19537.6719361
19535.0947866
19534.633501
16918.3224098
16761.0993152
16739.7738447
16559.8862075
19524.577666
19533.1902763
19524.9758363
16662.0129031
16409.5979902
16501.8772592
16367.4997058
19492.9559187
19511.678044
19515.3000171
16570.9883175
15797.5067125
16470.7445988
16209.3927781
19547.7787507
19539.2984437
17612.573776
16960.1105345
17431.5670532
17100.6081625
19526.0214544
19532.7839205
19529.7567901
16804.9866769
16713.0228159
16997.9638286
16904.2607712
19528.2250329
19529.3406752
19529.9692468
16745.767596
16774.4091986
16916.3156607
16926.1811221
19529.3070954
19530.6560536
19531.2279567
16742.2595598
16637.2518436
16891.4985829
16758.5146724
19530.9288235
19532.5691652
19533.5002932
16656.0079829
16796.7321274
16739.0465501
16769.8382585
19532.7076401
19533.6949432
19533.2269237
16831.6304708
16771.3693092
16796.5821904
16702.4174287
19532.1821553
19532.3520038
19530.9731954
16755.3446468
16734.2427257
16651.9055582
16524.6707903
19529.8463951
19529.8678367
19528.7033442
16696.6137211
16526.7873748
16500.8290402
16478.8191131
19522.4404204
19527.6556704
19526.1332144
16487.4643706
16357.2133116
16474.5429319
16420.8962127
19534.3129647
19523.9564221
19546.0224279
16463.5136057
16314.429444
16548.3896965
16413.952138
19540.8281135
19544.710709
19541.4110702
17379.125712
17131.8961219
17250.7837648
17162.4759541
19533.3250146
19538.2506582
19535.6677615
17046.9903365
16953.4086366
17109.2947454
17011.8282399
19531.9374843
19534.2677749
19533.6962783
16955.5212928
16932.6301408
16990.4307749
16920.2891013
19532.59805
19533.5638392
19533.878456
16903.6337113
16792.5570006
16902.5218621
16873.8869679
19533.9040148
19534.4713936
19534.9256267
16767.7141031
16761.3281953
16869.4903392
16810.2099579
19533.006665
19534.955823
19534.3832653
16754.1589623
16694.2143001
16778.2211314
16729.9776916
19530.49442
19533.3095746
19532.3191419
16656.1165033
16485.2580291
16733.0645722
16652.5862858
19528.595359
19531.4881907
19530.7214565
16474.9535079
16502.1807119
16620.2998694
16586.5775502
19528.1783209
19530.5250474
19531.7263397
16486.4277604
16419.302298
16574.566822
16525.469345
19549.959742
19535.039043
19552.8029829
16551.1285466
16437.7812175
16641.7093999
16513.6823363
17237.987943
17155.7352058
19537.0296678
19537.6358162
17104.8664981
17009.4146466
16957.3176839
19535.4538897
19536.8601334
19536.7452155
16986.8609339
16918.3083324
16937.8354951
16907.6663782
19535.4669198
19536.8142726
19536.9081617
16905.9051716
16880.6128766
16899.1561624
16886.6416536
19536.0758028
19536.9807196
19536.9686823
16873.0760253
16810.7502862
16880.5905427
16848.1970954
19535.6501114
19536.9210821
19536.671602
16791.1902132
16771.3475837
16841.7382754
16828.5510784
19534.0337026
19536.1564124
19535.6991212
16760.3052369
16675.4581505
16821.9407395
16760.490476
19532.9868611
19535.3266643
19535.3521492
16654.4025425
16600.748532
16741.2588251
16692.1244135
19534.9216417
19535.8529317
19537.8841261
16594.7221248
16573.3526051
16683.7192888
16686.6103904
19554.8049014
19541.6804153
19557.0391534
16694.2375366
16551.6705745
16802.2929283
16615.5794574
19538.2988803
19539.7754941
16894.754451
16879.3446088
16887.4597024
19538.1450338
19539.7539774
19539.5455586
16869.4025097
16838.1374866
16890.5241299
16872.7129171
19537.7764457
19539.369814
19538.9771346
16839.971804
16830.7901279
16874.679267
16827.9653798
19536.8364137
19538.3431168
19537.9381684
16818.0636592
16767.4526969
16806.393657
16772.4946689
19536.9300339
19538.0130483
19538.3784524
16752.8412939
16715.2195455
16764.2484868
16744.0379627
19540.0916244
19539.392326
19541.6911912
16715.7868939
16723.9090521
16744.7062949
16754.5690764
19558.2724346
19544.9746869
19558.5345685
16833.7001178
16622.2517561
16863.4356604
16632.2627238
19538.8625976
16759.571818
19539.4816999
16747.7601135
16735.9657575
19542.6761104
16738.512589
16738.2543336
19557.9502897
16848.0248315
16620.581429
13.5741984614
18.4112837814
8.7434259864
15.1013673549
1321.52490737
1299.62995271
19.275781818
18.075158303
17.108951901
17.2956046653
1375.03171631
1326.78662461
1340.36509362
20.1814548112
23.1850045844
18.3473751471
21.1003584072
1344.84821166
1324.21771952
1308.55146501
28.8459494124
34.9911557349
27.9979386217
33.305840818
1312.14510773
1304.85307915
1300.13342357
30.9880913797
13.0658059412
31.0545114182
18.56100965
1275.46284204
1301.30841593
1289.71026704
3.09195671372
1.9226711517
5.74315208549
3.44198143633
1299.72760302
1292.05524561
1311.61808999
1.81050246029
1.54328260081
2.98391999715
2.18714736672
1390.36686455
1349.65839284
1398.29102596
2.43657108108
4.74985442935
3.18164321132
4.79751127533
1500.54156534
1442.82670779
1483.55370516
4.88506591533
5.25368342805
4.54880802355
4.86442135135
1674.95509199
1495.61843269
1626.29934523
7.83354402781
18.9244215596
7.10738351825
19.7253191359
1164.57867986
1113.09820846
1156.74363473
8.65316942902
15.6858554337
7.75456929934
13.1445750634
1260.46141988
1200.35500518
1220.99393612
15.6319578331
13.8045382446
9.73791653606
8.32246939337
1280.88068638
1229.95367444
1237.29572665
12.28294454
13.5829081624
6.80737776132
8.07452902034
1301.90464547
1251.71224976
1281.94086571
18.2446756471
20.159107635
11.6984907866
13.7522819151
1303.9244457
1314.85228912
1322.98928013
17.1475208502
19.33028992
12.7681031369
16.3843402276
1305.33952406
1311.74096334
1329.52837407
24.9212797072
11.7269575853
27.610638617
20.2184863899
1345.07516368
1365.0464142
1383.91358022
4.68599517901
3.32898565434
8.85194392448
7.11401675848
1410.86328227
1395.61725931
1414.13994878
4.34243454735
5.68645381032
8.37946994859
7.83426070362
1476.49428831
1435.36078023
1468.59749358
5.73320427361
5.55636590061
6.8711917601
5.59720026844
1596.43487144
1451.73372221
1552.50241496
6.68717364713
12.7914285829
5.78997923119
10.1426669819
1157.09642094
1141.89779347
1159.62091318
6.18147507418
11.8177252179
6.3458686658
12.9976674575
1197.04646463
1185.02493926
1195.31321296
6.74785830688
5.91851039503
6.59003765809
6.38882994577
1219.82242043
1208.2631102
1226.97596074
5.3310182838
6.64192812625
6.57680774097
7.88726780609
1275.17978258
1250.19623925
1275.90209388
8.72075910936
10.3801310926
8.4902816364
8.76583314508
1334.03874214
1301.5810383
1329.22145899
11.8896322586
13.056837837
9.85989757068
11.534788601
1365.78486129
1355.27276112
1374.20467105
13.5583231342
15.5720633247
12.3214338271
16.8426937178
1394.61301858
1365.61413755
1370.85913487
21.4167401652
18.8319325428
30.5436742464
31.5720610536
1416.71466954
1405.36901196
1414.95032811
10.3001479658
7.44504863534
10.1856155781
5.48400330569
1461.65214399
1427.327847
1452.57404539
6.68544582867
6.42004842367
5.66769142619
6.4952352124
1526.39730144
1429.38327854
1507.22119988
6.55378733357
11.463116664
6.95512030601
13.2362174589
1200.57122376
1212.19352208
5.98988321816
6.2129162494
6.94709875492
1241.1608754
1230.95760132
1258.42954692
6.50139572155
7.22324730722
6.9065230887
7.07876982741
1286.4771841
1284.68484416
1300.11556559
7.2858017791
7.29226163037
6.70199525641
6.50640470934
1328.04410008
1308.2144228
1321.625602
8.08787247261
9.26852866801
7.23509001364
9.55441515664
1364.71160264
1340.45365659
1357.71503905
9.52637849907
11.45012141
10.1486527834
8.67091603054
1385.45263073
1370.38480286
1382.52912046
12.527327628
12.7311940233
9.08112022826
9.418565619
1408.2727364
1393.04648825
1408.4132212
10.1894849187
6.83380549527
8.63988265571
6.43439268455
1441.98371677
1419.66690605
1432.40418139
5.74464152202
5.64667790396
4.85207040777
3.73108378898
1491.46749854
1399.30967036
1480.64743459
6.00012649514
14.0488196745
4.32823924561
14.6507039167
1321.60091208
1343.33015376
5.66692511273
5.16949224474
5.65286458143
4.74680156718
1325.00745658
1337.58808148
1333.84010749
5.10731880666
9.95584406882
4.50305520821
8.79245876705
1358.2408745
1333.66857872
1363.45634386
23.8101134456
13.4880187784
24.6196255588
11.9780699631
1388.77562005
1382.23468778
1392.04724644
7.5222309195
7.25233994492
5.76806507271
5.43370827301
1414.67499687
1404.85782943
1418.61883304
6.13604456188
5.54639954953
4.92707304705
4.83203759757
1426.88046833
1421.77173248
1429.92228245
4.66076128219
3.90239173707
4.54272299323
4.32185722461
1475.70407343
1392.12365067
1479.01330734
4.49225677196
15.0486729017
5.07465972494
15.5300578467
1394.54209256
5.30129620635
1427.52316916
5.35246398419
5.27353756403
5.1463736986
4.89282036857
1447.50562727
4.63106185782
4.90352993011
4.32988341667
4.96493747484
1489.97378676
5.71662534401
16.4717060773
5.92476176404
18.7849387271
19484.396598
19486.2186441
16505.5625042
16606.1298552
19488.0550096
16547.8898415
19481.8648708
19485.4027496
19488.5175172
16607.0921426
16626.3317522
19488.6131048
19486.2791878
16561.0267269
19487.9743955
19488.1884577
16596.1498546
16628.8685308
19489.5821451
16612.4129502
19486.1531674
19481.5364538
19464.7409873
16560.7285705
16515.1388653
19468.6653554
16572.8848574
19478.4195059
19489.0564074
19490.0909616
16648.0644817
16684.9602558
19490.2218239
19489.2641381
16645.6262749
19484.1362121
19479.045648
16570.2624194
16676.5717882
19474.975706
19485.2246255
16622.5229546
19454.4782901
19451.5322254
16385.0112093
16464.232077
19455.9613674
16436.1362361
19447.4237507
19456.1664967
19457.3844984
16412.5322088
16519.1807416
19463.5111446
16461.7382549
19449.6118749
19469.5610748
19475.5644065
16532.7218334
16618.6657254
19470.0334382
19474.373336
16521.6826462
19470.915351
19479.4817782
16570.8560278
16609.7694522
19476.1910481
19475.0641915
16530.5475157
19485.0383012
19468.6239966
16594.8993746
16582.8541856
19473.5488328
16653.4302156
19481.9972536
19495.356732
19501.4193933
16657.3610594
16759.8316947
19503.0528835
16708.8924788
19493.3469472
19491.1135733
19485.5430532
16617.6443101
16710.7453962
19483.1624989
19492.4939125
16681.4842198
19498.9615473
19505.2575291
16766.2692968
16743.6610984
19505.5369668
19499.3188913
16723.0876415
19513.3939991
19507.3972678
16798.6548153
16794.642306
19508.9659189
16826.0625431
19512.2375495
19516.2700273
19517.1870256
16837.5494903
16880.9582104
19517.8164624
16856.6638356
19515.4689552
19514.9247759
19510.692668
16764.0804333
16781.9530947
19510.6357588
19515.5448504
16774.134138
19517.7924399
19518.7596348
16832.9906957
16804.2505188
19518.7101956
19518.1220787
16804.6602662
19519.2400229
19518.3422385
16913.9083437
16905.7873311
19518.8070785
16916.2825929
19518.8574151
19518.5450369
19515.8027286
16930.1300878
16911.8471151
19516.8274675
16917.6560097
19517.9489823
19519.2883486
19519.0916155
16862.6729301
16812.5880402
19519.2417419
19518.647064
16872.1163672
19518.6743952
19514.0262231
16862.460853
16811.888031
19516.6438147
19517.3007278
16878.4747299
19510.319232
19513.0300549
16904.1538351
16883.0131334
19514.3979583
16835.371838
19509.7738027
19504.7260527
19501.3112083
16846.0840544
16672.4872593
19498.5835335
16757.7544857
19505.6359204
19509.0924071
19508.9344685
16824.2109053
16683.1382667
19513.4975595
19502.4636518
16773.7524314
19502.8189446
19488.6329907
16630.9424071
16617.9341792
19495.7735433
19495.0588652
16706.371781
19487.7701259
19495.9205734
16575.1328722
16582.1193699
19491.8974371
16514.3477189
19492.018437
19485.2065359
19485.3999161
16498.6610107
16374.513068
19482.1048767
16455.6698646
19488.9369855
19483.7481687
19481.6565906
16552.6906338
16468.4817735
19487.7218751
19477.2694965
16493.5549168
19481.4722571
19473.3408596
16381.7995177
16428.4367915
19479.0182047
19475.0775357
16453.8301572
19450.5239527
19475.2084787
16429.934475
16447.2347065
19472.8897713
16427.7954576
19444.3952056
19385.9444538
19280.498933
15581.0231377
15940.4176951
15967.7156046
19363.3755885
19264.0351337
19452.4648521
19468.2027367
16471.1541759
16415.2250968
19471.9510979
19452.7673218
16391.8829936
19387.5288319
19442.0139996
15992.3281006
15643.9596146
19402.4881795
15576.1971569
19418.1250611
19529.0182552
19541.5021587
17412.3460901
17560.2581314
19530.3391107
17401.1950859
19539.1056508
19517.1908949
19504.2894015
17183.2028249
17022.5996829
19516.9572368
19505.2333046
17210.3503743
19526.8541278
19533.5615487
17509.728652
17329.5372386
19525.5511718
17378.1565857
19536.3586984
19515.8251159
19505.8310651
17066.8104417
17211.9937607
19504.2020804
19515.7950655
17227.9305828
19488.8487409
19493.480734
16687.2670955
16876.2028031
19487.2977413
19495.1343824
16778.9103011
19486.3987148
19485.3246894
16689.7929288
16763.0988939
19484.3769279
19486.5410266
16752.45224
19487.9186565
19496.7584491
16937.1248135
16914.470035
19494.0425171
19490.3446159
16845.3160927
19485.3654985
19485.3945215
16836.3250118
16898.7084871
19485.1179351
19486.4864525
16826.3039882
19487.6942522
19486.2165748
16772.3186737
16788.7962592
19485.7935048
19487.3481132
16823.0653429
19487.1322862
19482.4964296
16783.3135479
16839.464528
19484.559994
19485.2209306
16844.8511098
19486.2033751
19485.4328325
16857.9158393
16934.8073936
19485.469598
19485.5694402
16887.5444346
19486.825422
19486.9009507
16896.1370298
16931.9119892
19487.2500118
19486.147651
16896.4408264
19481.5055551
19480.4387043
16699.9156964
16809.6542561
19478.9521937
19483.2880681
16763.6569847
19479.9936397
19480.3197346
16660.6382772
16681.5315209
19478.4092492
19481.0577623
16720.2761387
19487.395221
19488.0904104
16865.5261925
16845.2055679
19487.6308137
19489.4073084
16817.2427661
19486.9769025
19490.3110661
16716.0321568
16800.741235
19486.9220001
19489.7741984
16765.6130138
19487.5565006
19483.3706937
16699.7137393
16690.7541938
19487.6891602
19483.6490899
16716.7245984
19491.9149069
19497.7992671
16745.6760482
16788.987231
19492.2960135
19496.6509853
16749.508078
19488.4187926
19490.2390612
16709.4081106
16741.6975691
19486.8248634
19490.9143014
16721.2265055
19490.815659
19493.2582423
16779.9861127
16754.1531145
19494.0414074
19491.8102539
16746.5251767
19504.3706152
19503.4784476
16846.8330433
16830.6000009
19507.2095819
19501.2013437
16839.363316
19504.143254
19507.8304568
16814.8358343
16746.3819518
19507.8869654
19503.3845627
16802.0046676
19499.4746514
19495.2117963
16815.4673591
16789.8105567
19497.1241535
19496.9883415
16830.627047
19500.0740297
19495.548371
16727.271821
16751.1739089
19498.9937804
19496.8707243
16791.2079336
19501.8973268
19507.9638846
16743.6608714
16710.8506326
19507.8618504
19502.7570923
16682.3314283
19499.8200802
19503.0530169
16749.481749
16660.4037509
19506.5074955
19496.0437905
16676.996174
19495.8430458
19493.496332
16672.2956253
16605.1999213
19497.8431315
19490.1298796
16623.2538454
19492.6688436
19480.9254459
16580.4364179
16567.980616
19488.065139
19485.5692796
16601.494588
19484.1017229
19497.5439181
16643.1320115
16627.3269026
19490.5056984
19490.7369206
16582.3737426
19476.239783
19474.1869551
16581.4362059
16493.1893827
19481.9827579
19468.9362792
16535.1409959
19480.4084854
19477.4910331
16560.9335858
16490.5895827
19483.8261272
19476.1075914
16537.1963039
19476.5889318
19472.8091891
16484.9866798
16484.0424073
19472.4031122
19474.8456561
16514.6436441
19454.2798505
19465.4878716
16458.829009
16459.5452375
19459.1174785
19461.1315564
16438.6166585
19451.6456439
19455.7474359
16418.2985085
16374.0676104
19456.7152644
19451.5687107
16405.7736576
19460.7379441
19468.9937246
16460.7368316
16467.0661851
19466.6679864
19465.9967799
16438.8690989
19458.9484406
19464.5521436
16382.8486997
16434.0935437
19459.2953505
19464.6328133
16399.7618957
19438.5958927
19452.2494366
16428.6445243
16492.1270611
19439.6966413
19449.1735718
16475.7932276
19406.9952038
19447.6384411
15716.095279
16357.6937156
19402.1844148
15817.9351137
19454.2277419
19448.573991
19462.6849412
16508.6260943
16530.5195347
19457.7466363
19452.9348937
16494.5333278
19422.2194625
19473.1964503
16390.6216053
15890.5384774
19426.6392886
15862.531107
19468.0805384
19523.5337139
19531.3557369
17302.3706204
17312.021998
19525.0210433
17258.0866878
19528.6559603
19517.0853891
19508.2601421
17221.2242463
17146.6876589
19517.1626381
19509.7015418
17203.6173594
19525.1019824
19528.2068409
17279.2673705
17222.8193964
19525.2000507
17240.769815
19528.8226093
19520.0640464
19515.762003
17158.5715009
17195.6912388
19514.0758683
19521.0661272
17202.424223
19495.6748118
19499.5751448
16980.0549232
17080.8779531
19492.8630839
19501.9384467
17019.2573239
19491.7591359
19486.6359555
16962.7425501
16998.2098632
19488.8677924
19489.1811327
17009.1307934
19501.7702159
19509.542277
17099.5182516
17055.9315716
19507.3676682
19504.4808368
17046.4753621
19497.8338168
19498.8958264
17006.0257293
17034.6649439
19495.3543811
19501.0811901
17026.1437595
19487.4319344
19486.2687022
16959.464999
16988.9406983
19486.4443989
19487.901144
16981.7729894
19487.6181367
19487.7157375
16947.2087321
16935.9330504
19487.0287388
19488.0967173
16959.8518729
19492.3099567
19497.6025394
16987.475375
16970.1601972
19494.0442306
19495.9036711
16973.1232289
19491.687162
19494.6818587
16930.9799163
16942.9720775
19491.7843102
19494.58994
16950.3156024
19491.0603322
19488.7040589
16867.6416943
16903.6566545
19490.2059726
19489.2129687
16872.2010103
19493.891474
19495.5549997
16828.6929174
16819.5788646
19492.6077859
19498.0485115
16843.5025491
19493.905469
19495.2640001
16909.6296807
16890.5061494
19492.4645214
19496.5910098
16889.2367892
19496.1996563
19502.2345548
16857.112113
16880.7879563
19499.9245696
19498.8193425
16872.357374
19501.4067398