/*--------------------------------*- C++ -*----------------------------------*\
| =========                 |                                                 |
| \\      /  F ield         | OpenFOAM: The Open Source CFD Toolbox           |
|  \\    /   O peration     | Version:  v1906                                 |
|   \\  /    A nd           | Web:      www.OpenFOAM.com                      |
|    \\/     M anipulation  |                                                 |
\*---------------------------------------------------------------------------*/
FoamFile
{
    version     2.0;
    format      ascii;
    class       volScalarField;
    location    "12.3";
    object      p;
}
// * * * * * * * * * * * * * * * * * * * * * * * * * * * * * * * * * * * * * //

dimensions      [1 -1 -2 0 0 0 0];


internalField   nonuniform List<scalar> 
28582
(
17095.2103405
17094.293897
12196.8643247
12196.2376891
7297.50039248
7298.21077309
3621.89549972
3623.68711952
53.9304186921
54.7198839825
-27.0831526184
3622.60638594
649.684447659
652.804090746
3624.89946994
3626.07947863
654.034869047
1791.55704212
1792.50430241
17096.5995278
17093.8623593
17093.918416
12198.2319262
12196.0388841
12196.0840749
7298.8584506
7298.08529742
3624.98672472
3625.52083519
55.1216491452
-27.0910238301
-27.0327295951
3623.66952804
3622.9756994
650.820923742
650.583068895
1784.65927194
3625.39817827
3627.20528407
3627.33112404
1791.88091017
657.087723763
1792.91364912
1794.2513095
54.4027647762
52.9157564979
-22.9473101471
-22.9035081761
54.6614765642
-22.9360015261
1784.02555699
1784.79220756
650.53992202
649.199070163
1783.93573467
649.945188702
1784.91347734
1785.91203743
1787.17700358
651.73125956
652.095041738
1787.26719342
651.019195279
1785.98524998
1790.01912372
1788.31452609
655.067621618
653.403463883
1788.66983617
654.578071362
1789.37899062
1790.54280118
656.205008329
656.247058274
1791.01297769
655.596060891
655.435052358
1790.13227509
1793.36771206
656.089341976
655.874974611
1791.78567025
654.584678896
1792.35743189
654.926386265
54.0399076044
-22.8330141902
52.5225943847
53.6097811195
-22.865236754
-22.8420945278
54.0066327846
-22.9723514077
-22.9251437975
54.9591493248
-22.9881575319
55.8907850444
-22.9393161572
1786.81909914
1788.49744401
650.97281376
650.69454401
1787.57913485
1787.78232291
650.673230148
1786.00753124
1786.11523812
650.741063831
650.249294936
1786.81164526
1785.32624648
650.321264025
649.410742732
649.49570156
1784.05459189
1785.23803973
649.876620207
1784.61434542
649.827913266
1790.85003081
656.566205917
656.974850739
1791.85910611
656.856703015
1790.86107669
657.459452643
1791.81240424
1790.27620544
657.053564459
657.688791403
1790.68251942
1791.53458063
657.67902662
1794.01790449
1793.90923382
657.124771524
657.273699543
658.464452241
1792.92722386
657.920649257
659.040616068
659.227863058
1794.30413857
1793.09389714
658.416118421
1792.92140306
658.316956147
7297.36843836
3624.63704946
56.7619863038
-27.0465391822
3622.17577832
650.106664644
3626.36983013
3624.801535
657.140537058
659.22121426
657.811330961
3623.50308009
3622.62304967
657.368445619
657.320998548
54.6742071305
56.4329610409
57.829159512
-22.9409872532
-22.9652621221
-22.9778893779
58.6549983074
58.9333399647
1785.41658003
1784.25957262
650.443290444
651.052088534
1784.75069579
651.351057988
1785.11340353
1790.01222001
1789.70574269
657.064692825
657.669772009
1789.03729684
1790.91375683
657.468956674
1790.95531865
1793.3845358
658.42154692
658.844055478
1792.16458625
658.09082223
1791.91216047
1789.65193466
1788.85654591
657.310659534
658.310993817
1788.38753191
657.71558985
1790.40328539
1786.51847924
1787.54494602
656.945244521
657.254968309
1787.35352224
656.755232461
1786.61709238
1785.95459833
1785.82568872
656.577310535
657.242025021
1785.56137207
656.587186751
1786.09948334
3652.06952213
3646.68604271
3646.33465189
3642.4501217
44.4586040921
43.7234589197
41.3100025035
41.8217173835
42.1520372369
-27.1181805961
-27.1230494704
-27.0405424004
-27.0886371093
-27.0324713077
-27.0468760614
3650.39577167
3650.10968732
662.349833389
658.76387584
3654.66176672
661.619650649
3648.69325886
3646.98802939
657.38489212
653.634428379
3654.10576118
3649.24034879
3650.19171206
659.83206304
661.049929394
654.87995464
655.58992965
3649.74608451
3647.60009739
660.724888299
657.455196338
655.358470873
653.527391026
3646.9871154
3645.058102
653.691360001
654.266555616
652.238107824
3644.28132642
3644.08666054
3642.00462211
654.0521092
653.059006776
652.15234834
651.716106395
651.759120398
651.189097569
47.0274603392
44.4733685366
47.0225034817
-23.1658633797
-23.1379391783
-23.1598738506
-23.1431060583
-23.1338422911
-23.0486563113
-23.1860464746
-23.0926029898
42.3692312303
40.815080361
44.358063925
42.3885221433
42.6829196576
-23.1299700777
-23.1496256284
-23.1389922017
-23.1632765792
42.6757555121
42.4211702475
42.0592102561
-23.1812397365
-23.0940829903
-23.1771445338
-23.1055102141
41.7141487532
41.3616841987
-23.1382789965
-23.1637809058
-23.1656896219
42.1255145264
41.7868490773
42.6302311191
-23.1721331707
-23.1203207363
-23.1716048244
-23.1283888643
1814.08804231
1817.88738486
658.320011181
661.409271152
1817.93157317
657.464725025
1813.89835159
1814.09492469
1817.1602053
660.079228955
655.27257234
1817.63667804
1813.98240879
656.326252531
1822.55767474
1819.72600407
663.270064089
663.073350323
1820.51831769
1821.58579544
664.873734309
1813.25816565
1816.44040772
654.191236541
656.09192709
1813.63974103
1815.68716216
653.275154459
1812.70008766
1813.78763628
654.784522603
651.619779627
1814.76648592
1812.13934843
652.337658341
1818.71581429
1818.63224733
661.139658776
658.15384118
1820.25168438
1817.5174353
659.177855248
1819.24554205
1821.268807
661.315933243
659.06707864
1821.09308506
1819.22234627
659.277716639
1816.95830409
1814.85095901
656.362710433
655.514880278
1816.17659031
1815.34140985
657.166272547
1817.29846265
1815.31073487
657.182642478
655.72604472
1817.15921862
1815.51523618
657.32690608
1818.13091795
1821.04781195
659.953083882
658.738309838
1820.35708254
1818.84689562
658.031965442
1816.91465785
1817.01488734
658.733219796
655.785173964
1819.10634784
656.93878693
1814.90450508
1815.90378175
1814.79793919
656.927116252
654.898807455
1816.69294967
1813.98902358
656.270143934
1814.64258222
1811.23913939
654.453463477
654.171798175
1812.82336233
655.367794575
1812.81869677
1812.57471849
1813.56498454
654.211931319
652.749696061
1813.84472146
1812.45078409
653.180689307
1812.54587642
1813.61539713
654.399472574
653.264953578
1813.89545239
1812.25395979
653.379634392
1811.41877602
1810.16857667
652.73947669
652.420075386
1811.08105619
1810.50308811
652.808812118
1811.10471094
1813.08793074
653.771686031
653.095845649
1812.31954497
1811.80565965
653.052510925
1810.07263033
1809.87790637
653.450560742
652.571841254
1811.27839283
652.849286235
1808.65966857
1809.92350165
1809.61096125
652.657719398
652.160749274
1810.67967126
1808.76500239
652.63269527
1808.8086445
1805.98762021
652.242313138
652.081886266
1807.55554617
652.587628448
1807.31970516
1806.77614964
1808.58120477
651.716505153
651.47453207
1807.67831224
1807.76315461
651.377676415
1804.83376813
651.514161379
1806.40157121
17094.5212836
17093.2821167
17092.8550027
17094.4090417
17095.3721576
17105.9371812
12196.2287731
12195.2047472
12194.9384317
12196.1371977
12196.4885911
12207.7906884
18312.1269929
18314.3526985
17086.322755
17090.5831655
17094.0477312
17096.6868258
17101.7812759
17080.0744063
18314.1713299
18315.3165595
17091.4510045
17092.1349598
17092.5948676
17092.0901371
17091.2065957
17103.4942574
17093.9839093
17091.941841
17091.4462214
17091.7921148
17092.3377924
17092.361752
17092.1457214
17105.0464044
17095.9162454
17093.5296473
17092.3933641
17092.3226362
17092.7269757
17092.8790333
17093.1973846
17106.3566812
17093.0297053
17093.4093234
17094.3078601
17106.2528605
13412.4755374
13414.4429948
12191.370375
12193.7092871
12197.9489816
12203.8970143
12257.5993223
12092.4527805
13416.4046431
13417.127197
12196.1157145
12196.5538482
12195.6056748
12193.515179
12190.1375809
12190.7441306
12195.4420772
12194.6100662
12194.6449786
12194.5308529
12194.1650247
12193.3637959
12192.2941097
12202.1847054
12197.6750737
12195.5021107
12194.6971391
12194.7127396
12194.7574922
12194.1978306
12193.2487858
12206.4345917
12195.0349161
12194.981869
12195.1203791
12207.9020618
8513.43351138
8516.35906339
7292.89529435
7294.5375904
7296.30652737
7293.76601485
7289.82778032
7221.15041512
8518.2171651
8520.27551387
7293.30555786
7294.87054097
7294.67943091
7289.33200602
7275.94729388
7265.75627878
7297.40095341
7296.36190362
7295.6857079
7295.42135369
7294.29928488
7290.50195075
7283.06569151
7299.58763931
7303.11831536
7298.92629274
7296.58591434
7295.71501528
7295.14647565
7294.30264507
7292.27842857
7287.77238542
7303.55417876
7297.01408153
7296.58646413
7295.96658498
7295.372324
7293.90619946
7291.60352863
7306.7378669
7295.91438169
7293.87211573
7307.30020953
3620.79369884
3623.4426891
3619.34317219
3620.30985642
3623.83427847
3625.00444495
3620.54303003
3589.53383974
3626.86868004
3623.99266318
3624.99923221
3621.77121757
3621.9725153
3624.10647426
3622.11448651
3615.37038214
3601.38725958
3640.69580054
3631.21852766
3625.56279451
3624.47125711
3623.77547856
3623.43108348
3623.49590861
3620.21751321
3616.99204013
3617.93872517
3630.92331312
3625.93410733
3623.36227929
3622.73391668
3622.58267164
3621.78004355
3620.43581708
3619.41076439
3623.40430362
3622.53773543
3622.38090279
3622.76467871
3622.37783702
3621.30605401
3620.97152101
3624.37904718
3622.78812317
3622.01510019
3625.06564108
41.1586656138
45.8418537263
50.3563857599
55.6307512676
59.3028596085
62.0921460605
64.3169172764
65.853025332
41.503038543
41.2859090718
41.3520343906
45.0591904729
48.0068336849
51.9096207591
55.2786169538
58.5807674541
60.8205188839
60.8397066452
42.8285573031
44.4634695784
46.5609701011
48.2072099897
49.1805939263
50.9751544839
52.6537926705
56.9886110627
58.5079101152
57.8920765005
47.3826196924
50.8086337758
52.4560024853
52.8805935677
53.8921921246
54.8370363315
57.1216303479
57.9152981833
56.717648569
54.263783081
55.8837417982
56.2530883514
56.4228162321
57.3375365588
57.618255039
57.6386543912
57.7635244861
58.0321608746
58.8588156968
-27.0527358914
-27.1178677398
-27.0817328957
-27.1898999854
-27.2632839438
-27.0160559388
-27.0967568077
-27.063261127
-27.1602150624
-27.4979860115
-27.1392894277
-27.1523590858
-27.1084305684
-27.1888761379
-27.0291510123
-27.2618735091
-27.0107320838
-27.1195869775
-27.1594150818
-27.4194714773
-27.2398076823
-27.0944658725
-27.1357592484
-27.1085021023
-27.1002773913
-27.0837825525
-27.2298149159
-27.1007246101
-27.1940988981
-27.4318487815
-27.0871802505
-27.1254846204
-27.061770317
-27.0235082812
-27.0512659067
-26.9752897735
-27.1072747657
-27.1957466015
-27.4961076781
-27.0637423668
-27.0022593979
-27.2625184108
-27.0754197413
-27.1147990846
-27.1970922829
-27.5260724179
-27.0834610661
-27.2064465826
-27.574452206
18313.4409163
18312.5915085
18313.8841197
15862.4350091
15863.8552435
15863.306622
15864.2507454
18314.9529922
18315.0122597
18315.7562697
15864.8566774
15861.7964929
15864.8994444
15864.0651949
18314.5656193
18316.2644563
18315.6657068
15865.0091069
15865.6911746
15866.9960174
15866.9086163
18315.8535872
18315.7980508
18316.3245133
15866.326924
15866.1619481
15867.4458332
15868.065941
13413.7050004
13413.9394057
13414.6672404
10962.4016491
10964.0857053
10964.218075
10965.4986428
13414.7320596
13414.9356309
13416.0052127
10964.8269923
10964.8385293
10966.019816
10965.7141851
13416.8013053
13417.9059595
13418.0718437
10967.1558579
10967.9896721
10968.8434914
10968.8952216
13417.2038568
13418.4885701
13421.6610757
10968.2407989
10964.9601538
10968.7367473
10971.3082685
8515.36696105
8515.74785126
8517.19889591
6066.08272848
6068.13744149
6068.50677028
6069.8467122
8516.03307998
8517.9400486
8517.88623961
6069.23677846
6068.45756039
6070.37480408
6070.9982191
8519.46138689
8519.91039492
8520.09679634
6070.49738087
6071.37010762
6071.65304451
6071.87236457
8516.69798152
8520.15145831
8521.62099678
6072.02752925
6070.7817386
6072.12288291
6073.27960176
3618.56325902
3621.95830733
639.756179495
639.851995153
3622.94308025
3623.1541075
3624.35247558
640.866300746
646.997897103
640.621946307
645.804221569
3621.29127729
3624.48473671
3622.69265939
648.089061737
644.130208907
647.112227858
644.778389378
3619.18983302
3619.95297691
3619.79418301
642.673263217
646.184451578
643.015248262
645.306008796
3622.18647548
3621.07962487
3622.90149775
649.674888529
656.530621326
648.106744079
654.322238658
3625.06401607
3624.0517555
3624.72626161
658.221080872
663.427209312
655.89751416
659.727435537
3624.2131391
3624.23059678
3623.03633182
664.677822558
665.780937878
660.855202849
660.218874023
3608.36626682
3620.52637207
3610.5955717
664.369218377
658.805736294
658.652806762
653.883469862
3577.69019594
3595.81909847
3600.90323492
662.705076646
554.394716936
654.376510715
623.929639129
3642.66074898
3636.0570883
655.600678447
648.006794038
652.660329111
649.658671045
3623.81951345
3629.93732947
3626.06613428
645.177158522
640.861773449
648.285059654
644.418098552
3624.85652413
3624.59893229
3624.61859024
641.338290946
645.789358069
644.323867157
646.999717576
3623.79798056
3624.91474893
3624.63696955
647.297512633
645.619809601
648.011109458
647.979945205
3621.12622841
3624.1884341
3623.74018342
643.745356265
645.273908586
647.116824641
647.544547192
3623.36285757
3623.85773269
3624.39549341
647.77322488
654.482362203
648.68670677
653.526050228
3623.74579203
3624.43147202
3623.19910377
655.662917306
658.717819242
654.636754806
655.999630649
3619.44857506
3621.02138351
3618.60501165
659.602770376
658.496126388
655.653569678
654.483781732
3608.95824959
3616.05989622
3613.09313583
657.027970647
653.380431458
654.093705103
654.163842471
3620.32757241
3610.90987953
3632.39682085
654.381757435
629.225032552
655.837937003
633.737628739
3635.99267874
3638.91709652
3635.10101745
652.418471163
650.011110615
651.11490335
649.87716015
3627.39477996
3631.16089829
3627.82765171
648.69163591
645.48759596
649.343956357
648.635795102
3624.83021966
3625.9013538
3624.65495329
645.617771621
648.045980849
649.223025112
650.464620232
3624.12697398
3623.76043092
3623.31584744
648.692841302
648.518186176
650.259110678
649.894899847
3623.47797931
3623.19941357
3623.15019637
648.106086479
648.585342177
650.186756146
651.393655099
3623.65829273
3623.16430147
3623.05913132
649.301634004
652.558055145
651.424307877
651.747713779
3622.1790803
3622.60177614
3621.65217981
653.967827695
655.290068413
652.410182971
653.097934258
3618.3413868
3620.27318387
3618.89713876
654.517184542
654.030399368
653.022921058
654.435269194
3616.47920623
3618.37146193
3619.03742389
654.201010052
654.839085929
655.123959178
655.391394907
3636.32574967
3621.66645275
3638.33104818
656.650362179
632.874423217
656.704639125
630.871100079
650.775457855
649.943302775
3627.96686192
3627.63238585
649.58177984
649.288956956
650.316617646
3624.51464229
3625.5483674
3624.16163141
649.953121109
650.875281909
650.844710295
650.929766895
3622.80128107
3622.96543401
3622.4199138
650.566127538
650.485601162
650.776461655
652.338095154
3622.7343352
3622.35594175
3622.36562354
650.898956609
652.045966981
653.150455125
654.043179183
3622.25553339
3622.19401118
3622.01008714
652.01624348
652.021083288
653.909600437
653.940867346
3621.19742324
3621.68052099
3621.30671749
652.380692062
653.234806731
654.217955443
654.960775324
3619.62924573
3620.89477342
3620.45481041
653.533356531
654.86537492
655.158458939
655.3213829
3620.45809256
3620.22937437
3621.18661597
655.132128808
655.27261465
655.29467115
655.221500429
3638.51271551
3623.81090836
3638.6285759
656.434469769
630.317469256
656.277640506
629.759060004
3622.24225866
3622.31006332
650.678844855
652.888919734
653.406045142
3622.75532318
3622.92856264
3623.66256235
653.846316775
654.471887544
654.485294354
655.879758122
3622.68728685
3623.9432138
3623.84776569
654.329826558
655.118967288
655.98252498
656.794250439
3621.8430702
3623.3104303
3622.60346595
655.313949673
655.503051597
656.860833839
656.154549683
3621.0190838
3621.94114076
3621.41967734
655.581676707
655.553126163
655.871562399
655.671088116
3621.87748273
3621.33663964
3622.30008872
655.374907146
655.323587497
655.63281164
655.98868833
3638.71017762
3624.59708291
3638.36517377
656.493133814
629.93166824
657.104027425
632.433338685
3623.62929013
656.489881532
3622.12760844
656.12393114
655.628042503
3622.90166627
655.599128322
656.186697529
3637.95050782
657.127576281
633.468955042
-23.0316418417
-22.9921286765
-23.0660410815
-23.0477097826
42.739369418
40.7066515073
-22.9908180871
-22.9927070843
-23.0375610259
-23.0315526939
42.8266414117
40.1763208151
42.211437798
-22.9812358339
-22.9446308258
-23.0049191409
-22.965734165
48.2657594866
45.0211559502
47.0452462682
-22.8826969304
-22.8489789422
-22.9084835256
-22.8507099022
52.7978963214
48.7638256207
50.8336650426
-22.8717370672
-22.9633656442
-22.8643974594
-22.9036482443
57.9910228366
53.1319412834
55.3321847653
-22.9192726311
-22.9288575648
-22.8613172418
-22.8973343454
60.9019026232
56.9058956855
58.5064934868
-22.9901969584
-22.9919493669
-22.9900433834
-22.9953547156
63.3632802767
60.1345356927
61.7063628565
-22.9838912229
-22.9674334248
-22.9764564433
-22.966657162
65.1430284603
62.5814878479
63.6235282471
-22.9499156277
-22.9694865181
-22.9664259862
-22.9878477446
70.4113982803
62.6379266794
68.2066006306
-23.0451920957
-22.9304534647
-23.0493627806
-22.9416098598
41.3718424373
41.9671315637
42.1577132552
-23.0886143672
-23.0720146176
-23.1129215113
-23.0740046796
41.1641129666
42.6261147641
43.1547080376
-23.0355418374
-23.0355547073
-23.0523697492
-23.0497303447
42.7765493781
43.9205041469
45.1154894834
-23.0211006469
-22.9903923742
-23.0221099887
-22.9964911913
46.5895120987
46.2267511375
47.1043739289
-22.9784208284
-22.9574508925
-22.9773973189
-22.9480738997
49.6147350161
48.0639188406
49.3358165591
-22.854864531
-22.7474905462
-22.8545991953
-22.7837706283
53.6823395188
50.8220220394
52.0196918435
-22.8489780343
-22.9587381481
-22.8317662457
-22.8769959134
56.8372747011
53.7913020692
55.8015259422
-22.9812053471
-23.0099323836
-22.9211786446
-22.9756974239
59.931965272
57.3946247367
58.6463528015
-22.9721514788
-22.9676815921
-22.9440627826
-22.951651489
61.726314999
59.4179087963
59.9731966602
-22.9906313864
-23.0211133426
-22.9917378205
-23.0328106699
67.5852106808
59.0688929572
65.6142851156
-23.0766112889
-22.9759033323
-23.0918720531
-23.00589016
43.588770295
43.6361058678
44.8742517433
-23.1222359423
-23.0690005434
-23.1253823992
-23.0467864237
45.5766614208
46.1860013231
47.753985618
-23.0165799916
-22.9988647593
-22.9872582041
-22.9759084453
47.4743547028
49.0529566783
50.0204147893
-22.976645993
-22.9490105756
-22.9505296295
-22.9184892313
48.6405985803
50.5040992894
50.7614512929
-22.9239209686
-22.9013921801
-22.8888551938
-22.8707272062
50.0934446027
51.0311478897
51.4995692202
-22.8533632114
-22.829875673
-22.8449169204
-22.8339457336
51.3133044878
52.0506732955
52.3134294562
-22.8470377729
-22.8272391713
-22.8442434251
-22.8435125659
55.1777936664
53.2745322104
55.413322013
-22.8759227973
-22.9348540346
-22.8345362828
-22.8693100887
58.0987781564
56.922588842
57.8890268446
-22.9098962295
-22.9433407512
-22.8959014249
-22.9398181197
58.8396384992
58.1062789776
58.0977195877
-22.9957265417
-23.0438865943
-22.9957888773
-23.0480652747
63.7061352154
57.0004721406
62.5295063728
-23.1103055228
-23.0288428737
-23.1087159329
-23.0301154917
49.2779029936
50.0413703051
-22.9621293402
-22.9400314803
-22.9223623567
51.9015386011
51.7902465775
52.9207671465
-22.9071131329
-22.8702716073
-22.8856961753
-22.8531033062
52.7204539562
53.6081123612
54.1142085269
-22.8444194005
-22.8360532364
-22.835273164
-22.842710626
53.3628011733
54.5396956825
54.9547960771
-22.8198268398
-22.7892750564
-22.8318459159
-22.7854111237
54.1748633609
55.2055132306
55.3584312795
-22.7928984884
-22.7848052375
-22.7866393331
-22.7920706808
56.0520924728
55.8255276724
56.723788001
-22.7557883301
-22.7922910509
-22.7845347319
-22.8456961515
57.7785397497
57.2884111782
57.7324856771
-22.8903051482
-22.9422960373
-22.9122708693
-22.9580150796
57.7690938051
57.7363331499
57.8123190561
-22.9993537624
-23.0487060599
-23.0113190607
-23.0486042829
62.3825202342
57.0191219424
62.876399652
-23.1047566737
-23.0188136754
-23.1006845011
-23.0091745134
55.2123606834
55.6773583427
-22.8439425473
-22.8738253676
-22.854527673
-22.8891071794
55.9535375229
56.1936944505
56.0564558006
-22.8689985358
-22.7910977089
-22.8951179503
-22.831388729
56.127654552
56.2566198253
56.423800824
-22.8336458044
-22.8698524554
-22.88731484
-22.9117688766
57.0065312582
56.8646168484
57.2099962314
-22.8810479596
-22.9201519736
-22.9101741835
-22.9457813272
57.6463786478
57.4450254233
57.6632966352
-22.9382781588
-22.9760265634
-22.95223519
-22.9904693371
58.076104664
57.7262168338
58.5078066379
-23.0193165544
-23.0486800494
-23.0284838194
-23.051307714
63.6029541133
58.3181974023
64.4462942767
-23.0999944185
-23.0035841679
-23.1026558083
-23.0064644243
57.4238652409
-22.9581589563
57.9418872436
-22.964398931
-22.995466224
-22.9698213367
-22.9909080674
59.2237299897
-23.0285116413
-23.0494050162
-23.0184478623
-23.0415834048
64.9906761445
-23.1021984956
-23.0019471881
-23.0959653533
-23.000931133
1783.27246079
1783.17990533
638.986820843
639.132602056
1784.54239173
638.537898542
1781.24443521
1785.38031546
1787.57343568
639.189916286
640.054564818
1786.07032023
1787.58613941
638.943700241
1788.554247
1785.29792957
642.780484785
640.278905074
1786.4375794
642.254395139
1787.62160997
1790.11666174
1790.16244783
645.080186588
646.304558908
1790.87995023
644.349597303
1789.3292861
1789.29402356
1788.50431854
640.278439942
642.088849618
1787.48482643
1789.86465678
642.159908399
1790.66482011
1791.77796657
645.965586445
643.979409181
1791.43206388
1790.90997082
644.094445955
1788.43702361
1789.6126979
647.746868625
647.467101325
1790.35429648
647.343971523
1787.51063011
1785.43537912
1780.82360421
646.040403201
644.072891098
1782.08310042
645.799648704
1784.30181765
1789.35764914
1791.54450132
647.220636626
647.383559262
1791.02415
1790.21320608
647.234714553
1786.63540111
1784.83807352
644.262542779
646.310673679
1783.46432001
1787.81258009
645.869236847
1779.0351299
1778.5558372
642.44743044
642.581209336
1779.85052394
642.309408325
1777.77997845
1779.50148484
1779.674099
643.259742298
645.750444241
1780.75857315
643.130210023
1778.40261445
1780.34412692
1782.55563017
642.602659477
642.333230314
1781.24079393
1781.49101213
642.11450115
1780.58102311
1782.87662349
645.476701926
643.129937687
1781.81737909
1781.65351104
643.065231994
1784.45545465
1781.38156903
652.397796963
648.917710048
1782.46962131
651.516389497
1783.4773091
1786.04690358
1786.63676906
654.71789197
655.595702419
1787.47290829
653.744981255
1785.10956623
1785.36119084
1784.4984356
648.458384465
650.520215969
1783.46117195
1786.32690926
650.900564036
1786.90658982
1788.98727171
654.885324088
652.60883026
1788.17190323
1787.8211003
653.045797947
1790.16196751
1788.17061211
660.020335742
657.355836532
1788.79330574
659.205153272
1789.72974777
1791.24399741
1792.1329798
661.897308773
662.338919927
1792.00640042
660.900473284
1791.10355067
1790.32483297
1789.82458503
656.557486825
657.387656853
1789.21943808
1790.55935306
658.24716736
1791.06244425
1791.00924972
661.057349495
658.553656454
1791.46642448
1790.98539183
659.658846503
1791.5373751
1792.73075053
665.68646014
663.614099352
1792.1692843
664.673658409
1792.59239467
1790.13291799
1790.05329916
666.183695634
664.040284637
1788.23006474
664.887281683
1791.69055256
1790.12324369
1790.44995486
662.408665609
661.421033154
1791.26467927
1789.14150081
663.243198453
1788.76435455
1784.87031693
662.20131056
661.193915226
1786.57807673
1787.36868167
663.102953556
1782.20605704
1787.86339705
662.338512525
662.408568578
1785.61236471
660.201729189
1784.80541549
1778.1893992
1775.07365882
659.877140335
656.240598139
1773.39329833
657.757159487
1780.52832054
1780.65222643
1782.09241976
660.561547818
656.927347501
1783.94383692
1778.98973938
658.579705711
1776.6659285
1772.34057401
654.890545802
655.162012036
1772.43741378
1775.60938525
656.328417084
1760.07989285
1768.7178537
684.592107578
656.500023574
1767.30815543
663.788477366
1761.04298743
1747.6041893
1741.46733585
754.097173956
621.217405299
677.96001718
1757.18034574
1744.63863605
1761.99206868
1768.6894228
655.562653496
661.091817844
1767.45502572
1764.96096052
663.379429808
1751.97352424
1774.40556847
616.529246313
671.03293536
1754.95880169
675.935821798
1765.36032506
1808.58343478
1813.77218433
653.397800861
654.251208693
1809.06788864
652.435458839
1812.19376429
1804.46451584
1799.16349673
650.986223094
648.640552196
1803.77842462
1800.59879063
650.718914885
1807.84548554
1809.2826769
653.249283424
651.634936126
1806.93374257
651.894248726
1810.62417434
1804.67038646
1801.22395073
649.256694508
650.723957489
1801.29283225
1804.20616711
650.68409893
1793.26622376
1794.72676492
643.075096455
646.486652767
1791.43508131
1796.61484453
644.517425618
1790.86099304
1788.72233776
641.477155664
642.08107062
1789.42347793
1789.47747307
642.896089249
1794.2214153
1797.81767509
647.53258169
646.735840499
1797.61463657
1794.48301526
645.749183617
1791.59467859
1790.02921997
643.195907845
645.185745774
1789.88100948
1791.83071497
644.086439966
1789.85029445
1789.10916789
642.413189802
642.113344852
1790.06983096
1789.27227295
643.000587261
1790.7410267
1791.74759578
644.171032198
645.893938132
1791.07838124
1791.45973502
644.41293487
1789.53080342
1789.29262094
643.099947333
644.941225397
1789.29872502
1789.3925493
643.801197484
1790.24666974
1790.63683113
646.297151093
646.042354914
1791.00126078
1789.95874559
645.070780181
1791.16159307
1791.75958136
647.897918834
647.412120633
1790.8252491
1791.68616619
648.145335547
1789.60382809
1785.98796416
647.12964848
646.533838326
1788.77084925
1787.23498004
647.823864961
1791.14008859
1791.02711601
647.540139718
648.565990232
1791.4100181
1790.88328518
648.283239858
1790.02837023
1788.75127841
647.35593204
648.520466473
1788.22933322
1790.05131141
648.211494198
1783.77864028
1783.6361829
643.065851842
644.810373774
1782.48373308
1785.03125702
644.125158841
1783.86431821
1783.74537833
643.49980881
645.670713342
1782.64064946
1784.85771956
644.255244036
1785.24909875
1787.45131249
645.993095561
646.759116283
1786.4295454
1786.50485752
645.40100658
1785.0883691
1786.64923106
646.524933267
646.861417128
1785.86909039
1786.231515
645.509621048
1787.90484952
1785.32795139
650.272395047
647.848198143
1787.13512229
1786.26265501
650.172242639
1789.29606137
1789.57540154
652.732403321
654.470204449
1788.62037891
1790.26132659
652.708470288
1788.53085536
1787.60256697
648.15681903
650.190435609
1787.07967809
1788.8508578
650.151812193
1789.78526424
1790.71873433
654.149747687
652.045898127
1790.67347818
1789.97822234
652.456588758
1790.4499251
1790.05764887
656.769793065
655.533179969
1790.21357274
1790.58047497
656.347434799
1790.14217075
1790.00421593
657.714586893
657.789602744
1790.24318968
1789.50472763
657.022850589
1790.42477213
1790.8641916
655.203303628
655.507253873
1790.83991047
1790.40807647
655.907016802
1789.63057146
1787.75458018
656.803490703
656.012860407
1788.52349875
1789.35550176
656.462332728
1786.59091876
1789.2209777
659.881861077
658.38462932
1787.76058509
1788.33344361
658.341134549
1784.4451278
1783.22052557
659.47827565
656.756545788
1785.7833931
1781.93421657
657.681708114
1785.28715606
1785.92250615
656.988381332
655.292381185
1787.06651238
1784.07930528
656.768369627
1783.33256269
1780.89145351
655.436178125
654.793979181
1781.20395549
1782.45288873
656.137510203
1777.05851898
1780.43464349
655.575544733
655.507852409
1777.52737901
1779.4027718
654.513393394
1775.1659571
1772.52291314
654.242213149
653.387439291
1774.82149567
1773.83529796
653.758911691
1777.59968566
1779.61470582
654.516634824
653.81966159
1779.22832386
1778.61572639
653.952313406
1776.42510729
1777.53971224
653.768065276
653.792187979
1775.8511724
1777.89264281
653.669442155
1770.91399409
1770.55236813
661.571077851
654.472679098
1768.30903717
1772.65945668
661.353973802
1764.16827398
1783.71072864
671.85170502
631.729935053
1760.88703528
671.412118509
1788.92114838
1773.49339417
1776.81764303
655.390131991
661.601439519
1775.22444426
1774.56675178
662.028083239
1766.24195679
1792.33347578
633.438119278
669.050877487
1766.39497402
670.374096865
1791.65317104
1804.81415423
1808.1016218
651.702914118
652.078712126
1805.95834079
651.551152633
1806.90534373
1802.4468076
1800.70680006
650.95192482
650.13911381
1803.45473455
1799.88963526
650.900479042
1803.54130934
1804.24732746
651.620042833
650.614227777
1802.3345961
651.045438509
1805.56304698
1801.34042951
1798.20717521
649.992229328
650.248851682
1799.01631158
1800.31925006
650.556880341
1794.03649477
1797.55504878
647.324553909
649.003629202
1794.36367062
1796.9855455
647.869388768
1791.73090534
1790.19298142
646.016843979
646.685980861
1791.86198089
1790.25530707
646.90670382
1793.74365589
1795.87257275
649.160536565
648.900168332
1796.41631834
1793.47996604
648.420919255
1791.68824538
1790.5391692
647.767747205
648.510816718
1790.42712237
1791.64630231
647.769965169
1789.75863779
1789.54161339
646.250168262
646.959045539
1789.64973115
1789.69892072
647.522060645
1789.93740763
1790.38885424
647.269314367
649.045703892
1790.02567585
1789.99560324
648.451906968
1789.80861938
1789.93332305
648.23621637
649.791706879
1789.87794799
1789.72575647
648.815251605
1789.73004136
1788.90876234
649.818776977
650.397251354
1789.45598411
1789.45446683
649.52442282
1789.63434998
1790.53505868
648.949015278
649.396617425
1790.37281726
1789.8971496
649.402410225
1789.136106
1788.8761782
648.805467992
648.958162186
1789.76168011
1788.52156195
649.145780512
1788.71379721
1788.31955595
649.836666928