/*--------------------------------*- C++ -*----------------------------------*\
| =========                 |                                                 |
| \\      /  F ield         | OpenFOAM: The Open Source CFD Toolbox           |
|  \\    /   O peration     | Version:  v1906                                 |
|   \\  /    A nd           | Web:      www.OpenFOAM.com                      |
|    \\/     M anipulation  |                                                 |
\*---------------------------------------------------------------------------*/
FoamFile
{
    version     2.0;
    format      ascii;
    class       surfaceScalarField;
    location    "12.3";
    object      phi;
}
// * * * * * * * * * * * * * * * * * * * * * * * * * * * * * * * * * * * * * //

dimensions      [0 3 -1 0 0 0 0];
oriented        oriented;


internalField   nonuniform List<scalar> 
92311
(
0.204150511137
-5.60212512124e-05
-0.00126881346079
-0.20388101863
0.00105534164723
-6.76460359919e-05
0.204291994416
-0.00101202692997
0.000938479482239
0.204239320374
-4.97337407022e-05
-0.0013397221749
-0.204008202302
0.00110260502182
1.31250215799e-05
0.204269579359
-0.00104256648877
0.000931846769123
0.204194186296
3.62481806064e-05
1.97396953322e-05
-0.00142804644741
-0.20405681614
0.00109304548627
4.76381433226e-05
4.44816506256e-05
1.14300163898e-06
3.65812866267e-06
6.50045391727e-06
0.204272437927
-0.00108693627266
0.000987508469814
2.3143819382e-05
0.0513670326569
2.42523713438e-05
3.35065796311e-05
1.78177616955e-05
3.95522773477e-05
-0.000366709957007
-0.0513657173975
0.000286524720791
-0.0513127823627
0.0512797492656
1.769113826e-05
2.65970455777e-05
2.72899273113e-05
1.49400577335e-05
-0.000325551618264
0.000273231197023
-2.97434260861e-05
-0.0123696575881
-3.65154770305e-05
-2.51673858144e-05
-3.02591314436e-05
-0.000317311172917
0.00900881015815
-0.000237238143102
0.00403707055984
-0.020418779832
-0.000294342793767
-0.00047259055318
0.0183335020258
-1.86744987873e-05
-3.48094217818e-05
-2.16596972513e-05
-3.47524706333e-05
0.00296208864537
-0.0145424850183
0.00636113725983
0.00538758229891
0.0058441784026
-0.020067937474
0.0374138105706
0.0491855317849
0.00621381268459
3.00964051659e-05
3.85117880471e-05
3.74743036631e-05
3.48354709964e-05
-0.000346120888436
0.000279259276967
-4.2323817863e-05
0.0118441631207
0.000110652719562
-8.94727673172e-05
-0.0118527266838
0.0118151402752
6.32660774032e-05
-6.31162512784e-05
-0.0118329667846
6.71386232665e-05
-4.9458655981e-05
0.000254943959391
1.0152452916e-05
0.0512959854885
1.61587748039e-06
1.21819362844e-05
8.48106133847e-06
-0.000299900468809
9.7429203179e-06
0.0512673717309
1.29224624794e-05
1.60273962243e-05
1.49802426196e-05
-0.0512718606342
0.000212310555291
6.2858300035e-05
-5.030249516e-05
0.0117868705908
4.47291946404e-05
-2.90569817876e-05
7.69524638586e-05
0.0127897971829
-8.31140849588e-05
1.19140550967e-05
-0.0127853802756
0.0127856969862
7.06339052201e-05
1.36984371593e-05
-0.0127833263622
-0.000168510821699
0.2042608533
-0.00201175960368
0.0017133563692
-0.203793939512
0.204332629803
-5.27049235428e-06
-0.000611236550555
0.000576111715035
-4.56166749898e-05
0.204416720867
-0.000464013656595
0.000425682346252
-0.000256254268769
0.204348621287
-0.00196677893948
0.00168595860306
-0.203979728934
0.204415453724
-2.92956900204e-05
-0.000753662433453
0.000632093942029
-0.000106093036102
0.204628091111
-0.000562763126791
0.000410803722803
-3.31588553133e-05
1.51775005648e-06
1.5609779154e-05
-0.00208533972319
0.204323323137
0.00171583540664
-0.204147097542
-4.67241005099e-05
-2.95710328422e-05
-6.17841019059e-05
-3.64580155042e-05
-6.13033784624e-05
0.204524604464
-0.000704103091772
0.000612002192464
0.0513496599463
-1.52403915258e-05
-1.90896567381e-05
-1.48109182006e-05
-2.06083420871e-05
-0.000566493593339
-0.0512275528185
0.000480985141694
0.0513127226411
0.0002416229499
9.10653193254e-06
-4.40391154937e-06
3.70758836309e-06
-1.406955141e-05
-0.000282219852602
-0.00445262497335
-2.96680923029e-05
-0.021063618985
9.48243547827e-06
-2.55137494695e-06
9.80103394096e-06
-3.72317339109e-06
0.0051141376742
0.00678625150584
0.00723784909631
0.00845565140081
-0.0293935936429
0.00268154135664
0.0689470750977
0.0189870452606
0.00489476373046
0.00360021729097
0.00188722391712
0.00272809863085
0.00278436271
-0.00338196655352
0.0347190959385
-0.00962953192672
0.000492584430198
-5.97954670479e-06
7.12373647831e-06
-5.38626530762e-06
1.19176537138e-05
0.0514085848242
-0.000557678721627
-5.69782900555e-06
2.31752679504e-05
-8.12430699939e-07
2.39654534589e-05
0.0513940250394
0.000393981967815
-0.0513204079772
-3.80063463728e-05
2.51756442377e-05
0.0117993015487
7.38241542472e-06
9.84783720452e-06
-0.0118036933277
-2.26104716332e-05
-1.17817263687e-05
-0.0118218315297
2.61203911416e-05
-1.43772160295e-05
0.0118444493866
-3.40490826216e-06
0.0128559032613
-0.00011109545594
9.61162362713e-05
-0.012843232461
0.000203680084206
-4.54924175007e-06
-2.93795230054e-05
-2.07687450074e-05
-1.31353382621e-05
0.0513589327
-0.000243842668535
0.0512571458783
6.55690060574e-06
5.62226093855e-06
1.04452620734e-05
-4.3546245974e-06
0.00019719314031
-6.88384209295e-06
-1.83537282602e-05
-1.05623970208e-05
-2.11015685628e-05
0.0512898385904
0.000166655464574
7.07796149751e-05
-7.8272924098e-05
1.05410846487e-05
0.0127958685756
-1.69232205899e-05
2.04971580158e-05
-0.0116033425585
-0.000159295107758
0.0115903033769
0.000168758527549
6.4187582008e-05
8.52164797758e-06
0.012790295618
-0.0127855951275
-1.95179031479e-06
0.0127893062688
-4.83939601591e-05
3.97545235989e-05
-0.0150881122702
-7.07917812646e-05
-6.44238920491e-05
-6.69691850089e-05
0.000409503175381
0.00446389477233
-0.0018894305758
-0.00223562068253
-5.8300695669e-05
-7.65602004005e-05
-7.86280472308e-05
-7.26014519688e-05
-0.00678250952149
0.00290069370179
0.00610911617052
-0.0112580645043
-0.00382427782582
0.00731939021921
0.0118867647804
0.0072650824651
-0.00328971206226
-0.0103206272866
-0.000981551951567
-4.62969050968e-05
-6.83196863848e-05
-6.01162819371e-05
0.000824007547475
0.00364093284752
-0.0077914646107
0.0105561184993
0.00936446316656
8.24247154693e-05
0.0128459163795
-9.56275877226e-05
-0.0128508409156
-0.0128460613246
5.25193778949e-05
-8.37867874244e-05
0.0128384018934
7.24270781039e-05
9.72773172265e-05
-6.29046619741e-05
0.0118530811218
-7.97974903917e-05
-3.19391399349e-05
0.0118454162576
-0.0118527722239
0.000124735946475
-0.0128479022679
7.00084696053e-05
0.0118524678917
0.000112468530977
0.0128372563112
-9.85069574523e-05
0.0128180646567
6.17780892794e-05
-8.83213717147e-05
7.69427424464e-05
9.08487423457e-05
-0.0128155330926
0.0128005972693
-0.000100556866514
8.17685500057e-05
-6.81044454943e-05
-6.43849266105e-05
-6.25742482069e-05
-0.0118292481654
0.0118121364536
8.24057541363e-05
0.0128029127836
8.09154651955e-05
9.97802325353e-05
-9.99182081501e-05
-0.0127859566639
2.69791344144e-05
-9.19582014573e-05
0.0127845393877
8.4106603937e-05
9.32150892678e-05
0.0127836639683
-9.99427867356e-05
2.3850290566e-05
-1.90308677544e-05
0.0117418578874
-6.13920422671e-06
-5.30160618202e-05
0.0117821711378
5.93843635235e-05
8.45374542772e-05
0.0117365999711
3.63269138538e-05
0.0127836757934
-9.59917118704e-05
1.11082346864e-06
-0.0127858435838
0.0127909040419
-8.76673976877e-05
-3.65427458339e-05
-0.011714224188
0.0116747095365
5.85081380781e-05
-0.0117052861957
-1.81406938088e-05
0.0116640062338
1.78352108138e-05
-8.77433501824e-05
8.13184237204e-05
-8.74708592453e-06
-1.10905008378e-05
2.58545944486e-05
5.67112977227e-06
-9.24731834771e-05
2.0239004908e-05
-0.0127836777441
0.012783371585
6.36150255174e-05
-1.8706515537e-05
-0.0117163212326
0.0116722840199
-0.0117138813111
0.0116667521099
-2.79021900124e-05
7.16938766711e-05
3.04629933305e-05
-0.0127881474215
-3.00208555293e-05
-6.54006535941e-07
-0.011753023283
-8.81676059278e-06
-0.0127913726042
6.43209175387e-05
-0.011753440109
-0.000145685695427
0.00127310565117
4.24505391677e-05
3.60627357027e-06
1.04987183601e-05
4.27389604614e-05
-0.00786236164844
0.00579637863453
0.000839167868165
-0.00391612638847
-0.0128823019675
0.0105222917114
0.0129158575647
-0.0072262510278
0.000202293192608
4.0078929916e-05
4.90900120073e-05
4.74104249348e-05
-0.00077203910399
0.00104313709096
0.00657817950383
-0.000224288177858
4.15723805883e-05
1.90116399127e-05
4.39857490828e-05
-0.00966246720714
0.00380646210382
-0.0139321000629
0.00178888995992
0.0143394853399
0.00524365574186
0.00390888166444
-0.0135246022297
-0.000922893727012
-0.0100528025252
-1.78717277724e-05
-3.77062090149e-05
-3.47482869322e-05
-1.54571988025e-05
-0.000153789630708
-0.000200453761037
-0.00368844391226
0.002741175232
-0.00310354354273
0.00147022452402
-8.52706625332e-05
0.00706187224368
1.57910038465e-05
2.50794682278e-05
2.88995777911e-05
2.11781243071e-05
-0.0137593908073
-0.0033612500594
0.000354201867517
-0.00394381622217
0.00254231546842
-0.000413718182266
1.57124542315e-05
2.58466440526e-05
1.19121031569e-05
-0.0203075117961
0.00664912356281
-0.00280054556812
0.00242131324648
-0.000129064843017
-0.0128310463669
-1.79230509462e-05
0.0128411084565
0.000121671252738
0.0128314809474
0.000126133411603
-0.000135665548707
-0.0128158950932
1.74246349223e-05
1.41655452058e-05
0.0118036127874
4.15391466232e-06
3.03226056988e-05
0.0118022270798
-0.011804965952
2.88681704596e-05
0.0128421971286
-0.000137187018139
-0.0128134047754
0.00011817500912
0.0118105272833
3.53533097608e-05
-0.000132045641743
0.0128521109325
-8.60096073016e-06
0.000123664601215
-0.0128517289672
0.000136881075808
-0.00014001108674
0.0128501938211
8.76209224189e-06
1.98176277212e-05
-5.22801321721e-06
-2.13242685742e-05
-0.0118266946027
4.23130757193e-05
0.0118508299702
-0.000138132870526
0.00012946208233
0.0128501678869
3.90198503955e-05
0.011832936837
-6.99428295156e-05
0.000103180656058
-0.011827154459
-4.62961536812e-05
-7.31555178002e-05
0.0118517495425
0.000104316084559
-0.000112657529471
0.0128535607018
9.1840769217e-05
0.0128561081677
-9.68252952963e-07
-0.0128433637695
-4.37062741324e-05
-0.0118302587646
0.0118536074355
0.0128531365735
-0.011819388556
-5.22076422073e-06
0.0128007720986
-8.73190866547e-05
-6.46125978377e-05
0.0116514160166
9.21796258885e-05
0.0116513282527
-4.393929074e-05
-7.53507503788e-05
6.7616198885e-06
0.0128019955467
6.61634153937e-05
1.4019815659e-05
-0.000101379203897
0.011622102938
0.000126476198029
0.0128125254653
-8.7148958516e-05
0.0116287724707
-7.57669143766e-05
-7.01321391337e-05
0.0128083556748
2.12529260113e-06
5.71170038997e-05
-0.0128230118789
6.12543419266e-05
0.0128310734239
-7.81955900024e-05
1.72341741427e-05
-0.000130564113165
0.000147832487903
1.33510122778e-05
-0.0116172554234
-0.000135425941756
0.0116058962863
-8.41581871409e-05
4.90496434149e-05
0.0128207459102
-0.000104995366938
-0.0127826486078
8.134634684e-06
-5.83442459197e-05
5.28693414819e-05
1.66982271693e-05
5.86153246753e-05
-3.99304051119e-05
0.011658876403
0.0116506260586
-4.48435151661e-05
6.67544691487e-05
0.0116238830861
-6.66310643969e-05
-1.43918822346e-06
0.0127951617507
0.0116329008749
0.0116294729869
9.25244229889e-05
-8.42657592504e-05
1.91233196502e-05
0.00012169595417
0.0116239834545
-0.000110189140378
-3.90159458454e-05
0.0128002575938
2.88407302953e-05
0.0128007201776
-7.44483949185e-06
2.21544238207e-05
-0.0116341701087
0.0116271506287
0.0128117438143
-0.000144507250256
-0.000144816418352
-0.000176937922387
-0.0003699682533
0.205146694235
-0.000146230312994
0.000254544043324
0.000164747517033
-4.02154802449e-05
-3.93921192008e-05
-4.55231515198e-05
-2.91226183385e-05
-0.000192290138809
0.0513962585073
1.88601301133e-05
-0.00757633627035
-0.000461063409164
1.91180064205e-05
3.37851533989e-05
3.99684279812e-05
0.0062411779335
-0.0186228987705
0.00424999531856
0.00414447784738
0.00427894778091
0.0127772739435
0.0242373342779
0.00431241251577
0.00967793476623
3.14167205116e-05
2.4589611853e-05
2.37179119298e-05
3.59744737368e-05
-2.80413005971e-06
-0.000467278612982
0.051381647756
3.41966825818e-05
-5.39902054203e-05
-6.12927903286e-05
0.0118432643155
0.0513415308065
-5.1442721638e-05
-3.29760924604e-05
-3.78175475204e-05
-4.42524717632e-05
0.000134652831577
0.05138440499
-4.88583695125e-05
-5.51627119728e-05
-4.808262289e-05
-4.81504947407e-05
-0.000118461204423
9.88232646035e-05
2.47073438457e-05
0.0115808908664
-0.000173830537623
0.000177405333269
-6.70677153422e-05
3.62423125956e-05
0.000144305144634
0.0116372506086
-0.000126576156748
0.0116411341303
-6.75237567013e-05
5.08220692569e-05
0.000176113611241
-0.0116381025941
-0.000162312642488
0.0514160716412
-3.38291979807e-05
-4.30031817817e-05
-3.67133778346e-05
-3.71215648708e-05
0.000130506405587
-9.10458866491e-05
7.9414293776e-05
-1.66073365449e-05
-1.418471107e-05
-1.02634231646e-05
-1.83085322871e-05
5.94344501226e-05
-1.71253099326e-05
0.051406007069
2.69402857137e-05
-3.88544774904e-05
3.91427942167e-05
0.000169358625594
0.0116346608482
-0.000163170264336
-8.48711433224e-06
1.65225438895e-05
0.000120438047771
-0.0116309560471
0.0116304138336
-0.000127559377296
-2.74012556566e-05
-3.56014641329e-05
-2.90535619723e-05
0.00449104497252
-0.0116791644035
-0.000865013250268
-0.0149485383163
-0.000405087625869
5.10977638832e-05
8.00507829017e-05
5.13780151796e-05
-0.00623197147731
-0.000408391364667
-0.0142749907526
4.20363623278e-05
7.39432786425e-05
4.53727502067e-05
0.00676979831619
-0.00726402607158
0.00150325909246
0.000188820482526
-0.000701420461962
-0.00146133450827
0.00275129377511
-0.000100405332126
0.00151233835615
0.00099370138719
-0.0124342300042
3.17181792492e-05
2.87216266315e-05
2.83779656234e-05
0.00302163270544
-0.000258732566205
-0.00473119333503
1.9880174649e-06
1.503783761e-05
8.18451649048e-06
-0.00351346787715
-0.000191489598826
-0.00913086311875
0.000367493318067
-0.0128450836116
5.66683451364e-05
0.000118162460036
-0.000132790107714
0.0128344605245
-0.000116580939002
0.0128450855506
-4.79341237316e-05
0.011847566789
-3.47566240163e-05
-5.36169240591e-05
-6.58577158336e-05
0.0118473282118
-0.000132834523744
-2.9854043368e-05
0.0118513609741
0.0128348010467
-4.29369626382e-05
-0.0128321576277
-3.61577214764e-05
3.12371070559e-05
0.0128397905446
0.0128369827052
5.18194716923e-05
-7.24039795067e-05
3.08826600817e-05
-0.000185401809372
0.000184497788581
0.0115700284287
2.75354550172e-05
0.0115972141568
-0.000158883015733
-6.3345854892e-05
0.0128427533315
3.88296429504e-05
-0.000176336511968
0.0115919213475
-0.0128249181092
-4.38780155588e-05
1.56312575048e-05
0.0128329621826
-2.65561223969e-05
0.0128114195996
1.86544346244e-05
3.87732815042e-05
0.0116249175035
0.000167392845074
5.14078803217e-05
0.0116424914755
-0.000143705398169
0.0116234513756
0.0128222639237
1.19893292838e-05
0.0128415758498
-4.1274192476e-05
7.83670997646e-06
-2.40785723616e-05
-1.02431717186e-06
-0.0128381266441
0.012837707639
-2.92627000699e-06
3.72972715005e-05
-0.0116209921598
0.0116199573833
0.000181889134977
0.000176793708165
5.92360023592e-05
-0.000157396988182
0.0128433436238
-1.36635061019e-05
0.000183325238784
3.05504994628e-06
-0.0128450756614
-2.82644534474e-05
-7.88367195661e-06
0.0128429719942
4.41705856296e-06
9.81120511125e-07
0.0128379085461
-5.09515060234e-06
3.03279687559e-05
0.0116153152773
0.000175366530493
0.000156173896852
2.94243883674e-05
0.0116328918012
-0.000154913361644
-7.19448681128e-06
0.0116121534831
0.00015939213476
0.0128330318814
-1.07854907226e-05
0.0128460101413
-1.56527637997e-05
-1.59775932109e-05
1.19470593126e-05
3.01642858635e-05
-0.0128347180267
0.0128348843971
-2.80169733824e-05
6.5962809107e-06
-0.0116057736283
0.000116989305417
0.0116045975969
0.000140316781075
1.88722923897e-05
-0.000141834101338
2.4892178253e-05
0.0128475605165
0.000139203824831
-1.70923127819e-05
-0.000471445411473
-0.0496946079154
0.0494869700302
0.000541913047422
0.000113838868675
0.00011926441768
0.000126829492891
0.000111441649464
-0.000333998197168
-0.000609456369729
0.0500546217946
3.38819952778e-05
4.56328009818e-05
4.31095768801e-05
3.84579205655e-05
-8.80160377702e-05
-0.0501027824403
0.000584815564843
-0.00102857803426
-0.0500872901709
0.0501869352549
0.000874822541612
-3.38250229153e-05
3.49004873682e-06
-2.18091559843e-05
-8.73084409855e-06
0.000114984645355
-0.000768696003201
-6.50774376661e-05
-4.39353851356e-05
-6.02890234792e-05
-4.79387682255e-05
0.000193558240385
0.0503882080019
0.000711640799035
-0.0503074564469
-0.000143816306434
-0.00369186590086
0.0017441636282
0.00547450291036
0.00616797556232
-0.00922768136337
-0.000133779505598
-0.000112062170527
-0.000107048814481
-0.000113564925354
-0.0113245379162
0.0161670099339
0.00720404088098
-0.00787397917857
-0.000108213959509
-7.67566013258e-05
-6.64825683486e-05
-0.0038203299665
-4.1777307466e-05
-0.00612868383586
-0.00875280038664
-0.00381021588854
-3.36313075318e-05
-2.2536322887e-05
-1.92314263174e-05
0.0149443940246
0.00386550451679
-3.02392628227e-05
-0.00793280530423
0.00300245824405
0.00213822736959
0.00530034564098
-0.00246497023358
-1.71109946354e-05
-6.3495985714e-06
1.04145399036e-05
4.79884943688e-05
-0.00116758118096
5.57173006077e-05
6.08785150298e-05
6.89574127806e-05
-0.0084464555064
-0.00232099757195
0.000204070308107
0.0114975644544
-0.000661337536299
-0.0229608773984
0.0153762684787
0.0157955263297
0.0147915179531
0.0155881577481
0.00586441683119
0.0354616045732
-0.0454652308024
0.00916145543456
0.00510460330708
0.00964523634113
0.00621166091705
-0.0197969525157
0.0610248730715
0.0176989616484
-0.0252369455488
0.0132786091743
0.013766998273
0.010509413237
0.010947201707
0.00489969931363
-0.0241739933645
0.010346930903
0.00687051408503
0.0077448703888
0.00512273259392
0.0207026308204
0.0382147183652
0.00941140589964
0.00884781969848
0.00681381462348
-0.00730518382171
-0.0113198923804
0.00702861072241
0.00677124142364
0.0041902788216
0.00445052003979
0.00307535239085
0.0661972546803
-0.00935433433795
0.000133536548593
0.000159113520398
0.00019194443344
0.000186969971072
0.00016707641173
0.049446755675
-0.000363789466958
-8.65612021665e-05
-0.0498349260585
0.0494760237833
0.000293045129892
0.000142176852835
0.000154826780821
0.000167259569952
0.000132376687983
-0.000362627755548
-0.049869305224
0.000239504148721
-0.000250685809935
-0.0117949345184
3.30728169357e-05
0.0117911164832
-1.82722809811e-05
0.0118129725269
4.55354726322e-05
0.000181465276217
-0.000173141499212
-4.99887407195e-05
-0.0118168316044
0.000172925876663
0.00015151822433
0.000167823629929
0.000160124905679
-0.000305804067107
0.0123064320062
0.012223395665
0.0122624963675
0.0123090210488
-0.000442753651484
5.62386697368e-05
0.000148159851552
-0.000164557860969
-5.61502674176e-05
0.0118290806152
0.000389104868899
0.000104107880489
0.000129692543581
0.000108306002695
0.00012010331035
-0.000306699048352
-0.0499461065421
0.0499028850659
8.10004180893e-05
8.41299057978e-05
9.47303799658e-05
7.36667959867e-05
-0.000283779286918
-0.0500257857342
0.000462331424438
0.0118259764271
0.000165463602128
-0.000149947481004
-0.0118244486581
2.84561600406e-05
0.011858720502
8.50373113506e-05
-8.12832071068e-05
3.06900497385e-06
-0.0118499212549
-1.54853663914e-05
0.000826995341686
0.000114657302326
0.000126213801373
0.00012766166339
0.000106478357785
0.0492931255173
-0.000217684477713
-0.000158834894496
-0.000214611003462
-0.000176592806857
-0.000100591991944
-7.89270213792e-05
-8.76813924727e-05
-7.3030229926e-05
0.0497488638769
8.22756421951e-05
7.251585382e-05
7.94895724937e-05
7.13640994005e-05
-0.000218742926362
0.0497811178258
0.000802945782233
7.22668324761e-05
4.86508787908e-05
6.1619105556e-05
6.26554121557e-05
-0.000253348242942
-0.00013893831683
0.0118383473528
3.90845964215e-05
0.0119001899273
0.000109962319644
-0.000125162594566
-0.0118800804911
9.89756400819e-05
-0.000103904398173
-5.12955034039e-06
6.11754591405e-05
-7.3353023913e-05
-8.28092219583e-06
0.0118842818613
0.0119587103993
3.72290715166e-05
3.69266237145e-05
-3.4444079966e-05
-6.17561086398e-05
-0.0119366632551
0.0499103327463
3.27769189004e-05
3.83023265115e-05
5.42209664994e-05
1.41913328942e-05
-0.0011467457902
-0.000150418329078
0.00121567988035
3.82678778106e-05
-1.808836407e-05
9.33798969277e-06
6.81355544389e-06
0.0504551809998
-0.00020354912809
-0.00159329750949
-0.000124896783648
0.0119156751245
0.000125270062814
-0.000129445515658
8.3167819925e-05
-8.38579325084e-05
-0.0119569103431
0.000189502383948
0.0119705159298
-0.000202405802415
5.60064006757e-05
4.1772347294e-05
-2.8668796054e-05
-8.57083731908e-05
0.0119753735916
9.03352541058e-05
5.28040179051e-06
4.65099096176e-05
-0.000138663192281
-0.0119930892287
0.0119896214995
0.000722207855911
2.49136445997e-05
1.80216136138e-05
3.36719780193e-05
8.63787847054e-06
-3.7115312967e-05
0.0502340884813
9.35447039667e-06
-1.55737431602e-05
-3.83503568384e-06
-2.25315448043e-07
2.11593235295e-05
-0.0501983722467
0.000675594566573
-5.80139978604e-05
0.011884516147
-1.27178112228e-05
-0.0118607684244
0.0119657853562
2.02955178598e-05
-2.43152055844e-05
-0.0119412084831
1.67093006838e-05
0.0119780402023
-3.84904406535e-05
2.18905181094e-05
1.15037602247e-05
-0.0119568440026
-1.60997724662e-05
0.00101318089204
-4.05937311816e-05
-5.66434531204e-05
-2.84190576444e-05
-6.64348099542e-05
0.0504616957168
0.000119825560531
0.0503314678659
-4.06702824382e-05
-3.07410988032e-05
-2.0094051434e-05
-4.84144411065e-05
0.000148701645199
-4.77089037721e-05
-7.75223838581e-05
-5.53467694868e-05
-7.2849414115e-05
0.050528651035
0.000857192352676
0.000212252328539
-1.70476099442e-05
0.0119812570904
2.73605746321e-05
-5.41165360515e-06
6.74822315879e-05
-0.0119916585563
4.24616969385e-05
0.0119774852995
-1.18212095462e-05
-3.66973409213e-05
3.26443336596e-05
5.62666825531e-06
0.0119882935404
-2.41760695385e-05
-7.21939949742e-05
9.64498594433e-05
1.74372717612e-05
-0.0119821655921
0.0119646240701
4.24773590218e-05
0.0119857674843
-1.58164822904e-05
-0.0119762689124
8.90402218758e-05
-0.011975725859
0.0119577447982
-6.72761595331e-05
-2.79308147209e-05
0.000407995592588
-0.000229482240933
-0.000220696925224
-0.000206414826668
0.00248547704943
0.00263786659736
0.00590220125078
-0.0105389825354
0.00101724730833
0.00270185367852
-0.000212383743875
-0.000173326247312
-0.000197427144319
0.00732737900685
-0.00987399999355
-0.0107564239536
-0.000181479559632
-0.000147001409795
-0.000174380400076
-3.30036434783e-05
0.0087680583738
-0.0094111086956
-0.00440037276275
0.0114072612891
0.00235156219877
0.0154756236599
0.000402542803149
-0.00159209110918
0.0109900373995
-0.00342512863216
-0.00780475198029
-0.00740013930536
0.0148155368904
0.000436009082646
-0.00305142406598
0.0108107046864
0.000743807021561
-0.00743107300137
0.00991487569873
0.00434369937933
-0.00917712116453
-0.000935155950336
0.00619516470463
0.00978500165284
0.000838959426706
-0.00806985712959
0.00982414303627
-0.00647396795959
-0.00274282336782
0.00698448570096
0.00398911740302
-0.000161463816814
-0.000140728358916
-0.000138742455653
-0.00822602474593
0.0092899462721
-0.00825652646617
-0.00010965102233
-8.50594243254e-05
-0.000114277185578
0.0147842703053
-0.00618859130786
0.00404384431558
0.00748204937603
-0.00868452094074
-0.000121497883887
-7.92167940213e-05
-9.62473573456e-05
-0.00422847752894
-0.00151244177643
-0.00641584860854
-9.00037025155e-05
-5.54181973507e-05
-7.9951490511e-05
-0.00593464890963
0.00456321174701
0.00757172268857
-6.47463924481e-05
-5.02158030018e-05
-8.02115740877e-05
-0.00473753743937
-0.00827383119777
0.00974449765458
-0.00612403707965
0.00339485206716
-0.00229295133831
-0.0093532711849
0.00752061448918
0.00380214339362
-0.00721337637856
0.0057330099235
-0.00532398229756
-8.50723560523e-05
-4.56478003055e-05
-6.00902811929e-05
0.0186275570385
-0.00264278101251
0.00917470098202
-0.00514777078307
-6.9367527985e-05
-2.42961103316e-05
-5.71491964153e-05
-0.00325428917155
0.00688474434572
-3.40238370639e-05
-1.59226248564e-05
-4.54946432887e-05
0.0113780120713
0.00550302178146
-0.00767834318044
-0.0036523679927
0.00422894573173
0.00676937621572
-0.00806491177069
-0.00311279805918
0.00810730080922
0.00487432149854
-0.00298622461124
-3.06935286473e-05
-1.91437070682e-06
-1.43210558974e-05
-0.000651899220868
-0.00853238613715
1.44772618948e-05
2.58096989444e-05
6.12906629596e-06
0.0131236480616
0.000850445596581
0.00362244430172
-0.000202541576681
-0.00712740654869
-0.00584053789609
0.0080922347263
0.00847185293229
-0.00416313559029
-0.00398541066702
0.00500702073578
-0.000964481650479
-1.08066739567e-05
2.76596717545e-05
1.41240523656e-05
0.00494277243667
-0.00423150443786
-0.000294179686001
1.62083147549e-05
4.83019590741e-05
2.49740913723e-05
5.82989835385e-05
4.81224458846e-05
5.86963155039e-05
3.52314257772e-05
-0.00118005390887
0.00168302984745
0.0106518680323
-0.00634408567393
-0.0034653598255
0.0142264161748
0.0112174803152
-0.00494054521804
0.0151728854144
-0.00428387591884
0.0124508714683
0.000208349773563
-1.09172826993e-05
1.24792401847e-05
-0.0125016192276
2.18289533736e-05
-0.012435805032
0.0123834054866
-2.81865778659e-05
3.52553280482e-05
-0.000228610999793
-2.44178452284e-05
-0.0118065783482
-0.000239463026992
-0.0117967086345
5.36087970419e-05
0.0117948533227
2.14873286375e-05
0.0123987899695
5.28681688171e-05
-0.0118123682856
-1.7640258489e-05
-0.0124906445337
0.0124657111406
2.08469276315e-05
0.000175476282426
-0.0125073562927
-3.07000036369e-05
-0.0124770385914
0.0124366331519
5.29266235528e-05
-0.000203553639895
-0.0118081440421
0.0118028370121
-0.000151957038642
-4.543796074e-05
3.88065424763e-05
-0.0118314613401
0.0124203004112
3.79664477399e-05
-0.012513767287
-0.0118226250171
-0.0123811126019
8.00982226301e-05
0.000197288942764
-6.88818267891e-05
0.0123455501819
-5.10018470363e-05
0.0124046196608
7.00986661861e-05
-0.000200260206906
0.0118209288756
-5.56590973941e-05
-0.000167509852254
-6.81156767283e-05
7.46132104025e-05
0.0118432442555
-4.40848305441e-05
9.96679435442e-05
0.0123779478967
-5.78592026687e-05
0.0118335494581
-4.7197034495e-05
0.0125052138255
0.000119089469587
5.87809517427e-05
-0.0125317427901
-0.0124917958079
6.25795271416e-05
0.0124618792053
-0.000130774528561
2.00981297466e-05
-0.0118362683001
-0.000128424112762
-0.0118387090775
1.35484998758e-05
0.0118413983911
-0.0125234756419
7.76502474498e-05
0.0124817647284
4.5101341439e-06
-0.011842596841
0.0125197890265
6.82064131838e-05
9.37646371054e-05
-0.0125419526902
-8.69002554328e-05
-0.0125342897652
0.0125240673167
0.000100078236596
-0.000101230628909
-0.0118384322937
0.0118467652299
-7.63012354014e-05
1.19473676045e-05
-0.0118489476876
-2.15604228277e-05
0.0125041508829
-0.0125512353692
8.25063404584e-05
-0.0118423378623
-0.00010747922629
-0.0124601388594
0.000112339845389
0.0124436030657
0.00012556577765
0.0124366354982
7.58709388606e-05
-0.000139163988774
5.93706304413e-05
0.0118589092511
-0.000116215513719
0.0118578820314
2.68593593705e-05
0.0124167020902
9.29156942293e-05
0.0118786072559
4.36212532045e-05
-0.000134511233009
0.0124336301765
0.000106600081016
0.000152734537924
-0.0123969917537
0.000170196507556
0.01239111114
-0.000163288549546
-0.000133662157969
7.93497250384e-05
-8.80640311821e-05
-8.86502293868e-05
-0.0119001315686
8.91717262304e-05
0.0119197172837
-0.000120739575417
0.0001877599481
0.0124338530096
6.82297282624e-05
-0.0124855423113
0.00012841039406
9.01619690107e-05
0.0124749669723
-0.000100156639779
0.0125075964749
0.000115909154045
-9.09810674872e-05
0.0118659835262
-6.6796041257e-05
-2.53215548182e-05
0.0119114745173
9.3302439524e-06
0.0125005299946
0.000140139334903
0.0118944847536
0.0124686703578
0.00015300260659
7.82777127766e-05
-0.000184659588494
-0.0124966015132
0.0125036372879
0.000191862826448
-6.04396399054e-05
-0.011916249008
0.0119391530638
-5.47712039609e-05
-4.41081144222e-05
2.34832044958e-05
0.0124729875393
0.000164853586369
-0.000251883458321
-0.0124387389536
7.44628951859e-05
0.0124562052157
0.00025792456412
-9.79423387161e-05
0.0123916083283
0.000206904849903
-0.000127853484786
-0.000204469087011
-0.000116973026886
0.0001469804488
0.0119297664333
-0.000152258886347
-8.99539597531e-05
0.0119391027006
0.000119258786572
0.0124095517549
-0.000127627388536
-0.000259300774193
0.000219768975903
-0.00010775203355
0.0119519653131
0.000142074380925
-0.000289771637182
7.18164621681e-05
0.012503429069
0.000293549795218
-0.000122871436898
-0.0124591609612
0.000324778365721
0.0125325702231
-0.000343039650267
-0.000139069314191
-0.000108039583591
0.000171141493461
-0.000175454685309
-0.0119714179213
-4.58202952205e-05
0.000181745508491
0.011979535442
-0.00029798543979
-0.000149552097127
0.000163460731939
0.000323810330607
0.0125637734988
-0.000105258518747
-0.0124788539632
0.000240671482224
2.98634312674e-05
0.0124989068055
-0.000212814934427
0.0125096512055
0.000216446915355
-5.52478986666e-05
0.0119582731768
-6.88300823385e-07
-0.000105511113029
0.0119811026938
7.61075311956e-05
0.0125270442719
0.000236785169088
0.0119670451162
0.000267034054038
2.55363551e-05
0.0125380780848
-0.012559179489
-0.00028752240436
0.000273163964659
0.0126019214556
-0.0119849917818
7.09015933374e-06
0.0119864771131
1.34510787369e-05
-0.000125120846998
8.35500027366e-05
0.000257685267656
0.0125881916476
-0.000135151405648
-0.0125480689989
3.47945558973e-05
0.0125454028151
0.000136906290971
0.0125288193699
0.000115436753004
-0.0125406206303
-5.17842886396e-05
-2.46636127044e-06
0.011914461335
-4.19831559279e-05
0.0118960843598
-0.0118686061986
-2.09040184252e-05
0.0125251816126
-0.0125565756277
0.00012048787432
0.011925393881
-1.62005504086e-05
-0.000157566641466
0.012544391274
2.66838262798e-05
0.00015685950189
-0.0125230517742
0.000177540817847
0.0125310886201
-4.30540159002e-05
9.15053111712e-06
-5.16980605984e-06
-0.0119519734169
-3.3709033815e-06
0.0119753543384
0.000174273731018
0.0125510462825
-5.03289331851e-06
0.0125619227977
0.000152172699909
1.46468951562e-05
-0.0125625418922
-0.000163947942731
-0.0125736115412
0.0125797210246
0.000164155332065
-7.74585660957e-07
-0.011953613146
0.011976979805
1.26977036691e-06
1.09042151982e-05
-0.0119300773564