/*--------------------------------*- C++ -*----------------------------------*\
| =========                 |                                                 |
| \\      /  F ield         | OpenFOAM: The Open Source CFD Toolbox           |
|  \\    /   O peration     | Version:  v1906                                 |
|   \\  /    A nd           | Web:      www.OpenFOAM.com                      |
|    \\/     M anipulation  |                                                 |
\*---------------------------------------------------------------------------*/
FoamFile
{
    version     2.0;
    format      ascii;
    class       volVectorField;
    location    "12.3";
    object      U;
}
// * * * * * * * * * * * * * * * * * * * * * * * * * * * * * * * * * * * * * //

dimensions      [0 1 -1 0 0 0 0];


internalField   nonuniform List<vector> 
28582
(
(0.815850599303 0.00460110186624 -0.000547346902244)
(0.817019384912 0.00397377497506 -0.000604492892512)
(0.816467597051 0.00487662084514 0.000196033206631)
(0.81745875407 0.00404976956078 9.21634032094e-05)
(0.81635755585 0.00505535735893 -0.000541128676599)
(0.817788077879 0.00428402060164 -8.22008362108e-06)
(0.822041469145 0.00515127462209 0.00124893774646)
(0.820871624656 0.00474432721543 -5.84738471064e-05)
(-0.173917512148 0.040597568323 0.00327358909045)
(-0.316628882034 -0.0352117718633 0.00236560572368)
(-0.00951413743793 0.0499975251409 -0.293700565607)
(0.82155694971 0.00488720950937 0.00067602035106)
(0.758236711592 0.00651733180348 0.00182237943773)
(0.757330489987 0.00366952602654 0.00272462915561)
(0.820689403593 0.0044778132092 -2.64390325622e-05)
(0.820337027418 0.00380923818396 -2.79309625288e-05)
(0.755438725569 0.00227602229068 0.00242562818272)
(0.818553775187 0.00527724664959 0.00105665050585)
(0.818518571448 0.00479699838052 0.00101058581639)
(0.815007868237 0.00746404339172 -0.000805893466138)
(0.818320754974 0.00235816611908 -0.000477738536698)
(0.817985897031 0.00170276441999 -0.000758848036222)
(0.815406973878 0.00743511036715 -0.000401128843438)
(0.818599265622 0.00281193230257 0.000448783040163)
(0.818256082312 0.00179617509379 0.000485631137646)
(0.815836712531 0.00761716129447 -0.00162690881405)
(0.818927790451 0.00278505054551 -0.000799171416009)
(0.82027714615 0.00828787899657 0.000268106361489)
(0.821047899373 0.00430724124162 -0.000325291739968)
(-0.343076262025 -0.0939425633248 -0.00281017143903)
(0.104124482274 0.314262667162 -0.353150194184)
(-0.0902040426735 -0.210666367853 -0.181861332318)
(0.821768295933 0.00841671193478 0.000977132160816)
(0.821478102689 0.00698897404159 0.00131007234351)
(0.755356244861 -0.000257374383089 -0.00156839427361)
(0.757380982208 0.00114042344623 0.000674563921819)
(0.822386867289 0.0065379699958 -0.000967847701854)
(0.821385515482 0.00384195286687 -0.000918444009789)
(0.820501004917 0.00357767776506 -0.000580187956366)
(0.82075094756 0.00306469376105 -0.00117922274255)
(0.8188938911 0.00496640542212 0.00087578098977)
(0.742411697855 -0.0109352064871 -0.000315285686802)
(0.818751959897 0.00435097502106 0.000629220618595)
(0.818653142383 0.00292364132168 -0.000333268098033)
(-0.221231833276 0.0390616833265 0.0093319976288)
(-0.0847995510259 0.0220019172241 0.00776135612256)
(-0.0771978456271 0.175491308229 -0.0531518737932)
(-0.077026060599 0.191010608541 -0.0098103345027)
(-0.266835056841 0.0236158797895 0.00845339704153)
(-0.130220891748 0.15955240355 -0.0269329422061)
(0.82229975478 0.00563433373905 0.00212828340553)
(0.821660360418 0.00484746526462 0.00313764663024)
(0.758369506511 0.00567875870706 0.00251625022695)
(0.75823269955 0.00766088506212 0.00144685700365)
(0.822177628242 0.00484329360069 0.00141489154692)
(0.758144294765 0.00676253096848 0.00198051819283)
(0.82161113603 0.00578762124225 0.00377724847849)
(0.820971408031 0.00511395633028 0.00313745133973)
(0.819660422622 0.00615282998585 0.00399126181112)
(0.757744208833 0.004651023755 0.00340639066068)
(0.757098246876 0.00494672116058 0.00270954440629)
(0.819862505527 0.00535836728594 0.0038822014225)
(0.757638218325 0.00584061291552 0.0031120909966)
(0.820851483991 0.00602833234042 0.00363191493639)
(0.818241714655 0.00572344969807 0.00207488719368)
(0.818613291518 0.00619144026281 0.00310975452227)
(0.753328767095 0.000813779141004 0.000414663550538)
(0.755177975489 0.00350341152866 0.00251552698868)
(0.818720902444 0.00565799459249 0.0032443867235)
(0.753090502826 0.00226764306788 0.00119698028705)
(0.818178476258 0.00600195184539 0.00180383902534)
(0.818660301695 0.0054298731647 0.000196486400001)
(0.748601364277 -0.00331320822377 0.00015649235047)
(0.748087837019 -0.00152873132931 0.00118018551642)
(0.818298517681 0.00553726453774 0.00146807005626)
(0.75099414959 -0.00125223735153 0.00039995996003)
(0.750378545778 0.000243299525237 0.00109238551892)
(0.818357327579 0.00575852024352 0.0010641091197)
(0.818446725314 0.00430857865023 0.00146271859194)
(0.748732322769 -0.00106787939785 0.00168223677105)
(0.748726868635 -0.00125841255293 0.00209710643901)
(0.818448855988 0.0049390383604 0.00189413037005)
(0.750813703876 -0.000151323151501 0.00214106044688)
(0.818564766988 0.00431436603989 0.00184675137061)
(0.751238604376 0.000422641905248 0.00234686936409)
(-0.0962709507782 -0.00648101638321 -0.00538700250175)
(-0.218731128206 0.155350926075 0.00121864017563)
(-0.110372057843 0.0261394829843 -0.00490929078648)
(-0.120834468025 -0.0316706967396 -0.00447279523175)
(-0.215540019842 0.0176875497446 0.00709291812305)
(-0.223416914578 -0.0127355994751 -0.00570726966806)
(-0.12729162632 -0.0502534869886 3.98398474317e-05)
(-0.0569703352729 0.0113140488888 -0.0190784302342)
(-0.0434173539824 -0.00680953608122 0.0151145509456)
(-0.203058303658 -0.11163994521 -0.00655517604054)
(-0.0732172598653 0.0079735497536 0.00756077091782)
(-0.330917592573 -0.121027004977 -0.00415936690834)
(-0.0615836062804 -0.0255480228763 -1.29696096848e-05)
(0.821624910373 0.008007009977 -0.00184681003223)
(0.820791133366 0.00839151485719 -0.0022533667178)
(0.755747555728 9.14744292909e-05 -0.000829486127838)
(0.755575781958 0.00116644599878 -0.00213433340621)
(0.821643320735 0.00853171305125 -0.00186551464859)
(0.8206530841 0.0078509952805 -0.00244658344279)
(0.7559688302 0.00160389718633 -0.00113491380178)
(0.822233263823 0.0081530327572 -0.00106553146898)
(0.822582217956 0.00891584589714 0.000283711464508)
(0.756236479305 0.000629672604894 -0.000518193898341)
(0.757726686772 0.0021433845193 0.000921524363898)
(0.822309825023 0.00866195607511 -0.00111750739579)
(0.822664569519 0.00852650443845 0.000866778776512)
(0.756643042878 0.00187079432971 -0.0006831463788)
(0.757228184696 0.00573226111121 -3.53664846216e-05)
(0.757858364496 0.00584832889479 0.00233189599969)
(0.822924704595 0.00647725241545 0.00193904084606)
(0.822372443029 0.00740005475069 -0.000653353463997)
(0.757848555924 0.00338457670413 0.00207963508745)
(0.822922290768 0.00772988393574 0.00198972238888)
(0.756978161274 0.00316317492366 7.93990082201e-05)
(0.819024649608 0.00527401904068 -0.000311215706843)
(0.746272674921 -0.00523414063057 -6.98093079427e-05)
(0.745924532167 -0.00333385937937 0.0012352957563)
(0.81931804971 0.00472178257406 0.000235522439892)
(0.744552515604 -0.00760933910332 -0.000191943462428)
(0.819536988041 0.00524535088013 -0.00113154920351)
(0.744527958119 -0.00536537859865 0.00132413597208)
(0.819663462192 0.00430227175321 -0.000186308246819)
(0.820786344664 0.00459258490899 -0.00215207660371)
(0.743020978456 -0.00928715745977 -0.000319804484975)
(0.743202024126 -0.00919352965809 4.7418470353e-05)
(0.820156549406 0.00504754337414 -0.00144967680696)
(0.820281099438 0.00378054902865 -0.00112541822654)
(0.743856592918 -0.00715778570785 0.000835224994694)
(0.818673538175 0.00363729685319 0.000323644690779)
(0.818448502022 0.00400356626308 0.00117717211176)
(0.746689721107 -0.00258220562997 0.00135095631104)
(0.746268984758 -0.00235064416931 0.00218036468412)
(0.744785075635 -0.00392174990422 0.00177470382148)
(0.819141733815 0.00402044349459 -0.000363124240408)
(0.745212798184 -0.00437134132307 0.000829210080133)
(0.744191314276 -0.00527099070443 0.000855905703398)
(0.743726276758 -0.00719031131428 0.000253316507176)
(0.818836029152 0.00215989382132 -0.00167836456528)
(0.819253253146 0.00335351024663 -0.000784607888299)
(0.744274856297 -0.0079099155706 1.24080118086e-05)
(0.819668750004 0.00280259340584 -0.00186889165294)
(0.744618885649 -0.00606207850704 0.000414152023949)
(0.819566454763 0.00116917267122 -0.00157494163175)
(0.822053122547 0.00310668309973 -0.0024454903198)
(-0.311012335969 -0.120129117341 -0.00406576208481)
(0.0580151722213 -0.0420111969274 -0.262429257821)
(0.822311641865 0.00662365034718 0.000610680022467)
(0.758289741379 0.0050029037084 0.00267342314889)
(0.820978051539 0.00258228509015 -0.00283306883603)
(0.821251491252 0.0018243208482 -0.0030272669178)
(0.741324487159 -0.0117033210081 -0.000466082781901)
(0.744667005846 -0.00837429507284 -0.000797088923748)
(0.744826692444 -0.0112155186708 -0.00266568065867)
(0.821962431448 0.00129656791148 -0.00260322786688)
(0.822267792129 0.000325727674378 -0.00102932568528)
(0.744926730419 -0.0110890090373 -0.00220635217613)
(0.744565017564 -0.00815635498091 -0.000761035825315)
(-0.161003525066 -0.0322876589068 0.00249544015576)
(-0.232192595421 -0.130549888771 -0.00967711949911)
(-0.234087934214 -0.12863167569 -0.00604379195378)
(-0.0175990277578 0.0136253345884 -0.00122000925443)
(-0.033980262049 0.0282357377758 0.00446949372559)
(-0.0231259597263 0.00912650232847 0.000847941337825)
(-0.22079367246 -0.0707922053948 -0.00213401285599)
(-0.177752821167 0.0262041105454 -0.000408375106423)
(0.821584033356 0.00812776472931 0.00324428240808)
(0.822443200823 0.00675739240374 0.00252017435879)
(0.758579821887 0.00272431451629 0.00224593271354)
(0.758173598792 0.00450454535906 0.00290934402804)
(0.822353251112 0.00805658907933 0.00237292649198)
(0.758490216455 0.00232178349937 0.0024370702526)
(0.821526309927 0.00694598475775 0.00374129043088)
(0.821267619463 0.00231525419458 -0.00283492909972)
(0.821276479868 0.00418406442318 -0.0024208657158)
(0.74082733566 -0.0122124220687 -0.000540014265219)
(0.742537301095 -0.0108742657804 -0.000742644336215)
(0.821616479914 0.00363091976303 -0.0030697298422)
(0.8207514181 0.00301001768328 -0.00197189351812)
(0.742017661464 -0.0118977291063 -0.00119599744922)
(0.820674341891 0.00145851527969 -0.00341631635381)
(0.819326221717 0.00139061541281 -0.00243221751347)
(0.744012263791 -0.00957562538139 -0.00121638744821)
(0.744493633079 -0.0099479170394 -0.00169838456399)
(0.819990605814 0.00197516947794 -0.00258803270086)
(0.743844790881 -0.0108724800069 -0.00135073742185)
(0.820132732684 0.000829034051177 -0.00347247115778)
(0.821189908087 0.000947257154704 -0.00329494238956)
(0.82113971483 -0.000124948647896 -0.00391628000023)
(0.743705028883 -0.0112763038594 -0.00139695043768)
(0.74489026212 -0.0111163469074 -0.00277401149567)
(0.821634272812 0.000339064226616 -0.00336557602332)
(0.743721448031 -0.0113205580748 -0.00156297250706)
(0.820513748604 0.000307690517949 -0.00375161933529)
(0.82223002394 -0.000430976769856 -0.00236600268144)
(0.821613982852 -0.000251979337402 -0.00317327064428)
(0.743599474104 -0.010811287325 -0.00117143495912)
(0.744677487726 -0.0104264302481 -0.00180961476486)
(0.821997219461 0.000148665847186 -0.00264683545334)
(0.743326210622 -0.00966504761126 -0.00135307932029)
(0.821768935607 -0.000603719697331 -0.00257376874963)
(0.822340732178 -0.000824106415026 -0.00141705328838)
(0.821672057176 -0.00196314955766 -0.00120507745311)
(0.742731200385 -0.00723629196694 -0.000257468658881)
(0.744493423336 -0.00928623754577 -0.00094933956218)
(0.82252606912 -0.00167941669847 -0.000745077000566)
(0.743075683295 -0.00851393478665 -0.000745143753054)
(0.821687014939 -0.0010538752381 -0.00158148091306)
(0.796060117372 0.00789320049151 0.0060392242127)
(0.802144521812 0.00984370118167 0.00154166071343)
(0.802318495125 0.0156534206734 -0.00205535859635)
(0.805422481503 0.0119625806329 -0.00375153844318)
(0.0372999522571 0.0789294260052 0.0122448553324)
(0.219013744669 0.0927562611844 0.00551478636742)
(-0.190035101496 0.0903387274725 0.000695032335623)
(-0.00477697009785 0.121199000004 0.00303376632271)
(-0.162284395166 -0.0102334144598 -0.00541939275208)
(-0.157648762922 -0.0132413949906 -0.304503809813)
(0.144030794808 -0.290860322879 -0.0895498985142)
(-0.0809898971652 -0.139611797329 -0.268135239526)
(0.199165789286 -0.108647567914 -0.204892209746)
(0.0321391904934 -0.0734198587869 -0.304042312447)
(0.296938637064 -0.0665129428732 -0.238364540986)
(0.794903453066 0.00160382663373 0.00753118274207)
(0.796406506699 0.00299491420744 0.00756504539273)
(0.754880929541 0.00127795045165 0.0131441883233)
(0.756321450109 0.00319642831556 0.00884629374679)
(0.791636825662 0.00614905952527 0.0083591630127)
(0.756690314414 0.00374864838198 0.00872034805814)
(0.798122899204 0.00579683751636 0.00586658335202)
(0.800602673336 0.00680601329001 0.00518554132657)
(0.756932877294 0.00234828075267 0.00767918968425)
(0.758651639525 -0.000658394398175 0.00443069686935)
(0.792986043045 0.0130928262875 0.00713159641724)
(0.799486863974 0.00948032288736 0.0039423048618)
(0.797740364824 0.0135498194028 0.00357627702044)
(0.757417344065 0.00305137463079 0.0076834022717)
(0.761858626605 0.00661337263529 0.00749862674864)
(0.759534542489 1.29150354574e-05 0.00428201282275)
(0.765466111973 0.00310291566779 0.00180017796115)
(0.798817867849 0.0182504826956 0.00190640426878)
(0.80168234078 0.0221616149593 0.0018760321908)
(0.763102485492 0.00814993450358 0.00812421000981)
(0.765238174166 0.0125688594557 0.00573624542494)
(0.766284862225 0.00433510182856 0.00146411988483)
(0.76716537056 0.00719499680556 -0.00209824741892)
(0.801482173159 0.0124589038104 0.000528122878592)
(0.803481225412 0.0114162629411 -0.000667216938011)
(0.759628790194 -0.000624769776562 0.00366391282288)
(0.765580519995 0.00168124945666 0.00187668189629)
(0.766200259385 -0.000948071471036 -0.000937923817474)
(0.804074362241 0.018188120869 -0.00272049424105)
(0.804434767073 0.0132563923684 -0.00284524885884)
(0.806109648519 0.014954265038 -0.00392779515465)
(0.766514466881 0.00259192747274 0.00127956447809)
(0.76709784535 0.00434196842253 -0.00286227296768)
(0.767139266532 -0.00055931759533 -0.00162386733065)
(0.766442783658 -0.00131726422379 -0.00463364650035)
(0.766981675878 -0.000859010369572 -0.0020367911169)
(0.765909713492 -0.0017267249925 -0.00406943987956)
(-0.0213373311297 -0.0197941686777 0.0207763370185)
(-0.0456882447028 0.0306542877354 0.0192974187992)
(0.0809943305444 0.0328606151724 0.0149244500201)
(-0.204152031366 -0.0564142098219 -0.307481544232)
(-0.0832361908896 0.0345646932018 -0.30378803336)
(-0.189986404616 -0.082799209383 -0.289750504614)
(-0.0439841641231 -0.0165758718063 -0.298307361214)
(0.017647725827 -0.111571112186 -0.250733397012)
(0.0201566708933 -0.195135961336 -0.138622597071)
(0.0456482406038 -0.139006902952 -0.255630568949)
(-0.00208877175712 -0.123290005029 -0.165976794846)
(-0.0842919853856 0.0526801242116 0.0154190795611)
(-0.185374056528 0.0759720825943 0.0100732175658)
(0.132712380995 0.0961520833158 0.00850404342361)
(-0.0750083420269 0.112112975696 0.00582096012246)
(0.0258258179206 0.133334589303 0.00606867413024)
(-0.128258006313 -0.136870011472 -0.25370309706)
(-0.0169159197329 -0.0865179747363 -0.249298289888)
(-0.0805665353097 -0.148288488524 -0.171490215275)
(0.000370002319701 -0.118276901224 -0.170367410256)
(0.284277890593 0.0714284869115 0.00110272818264)
(0.115883794902 0.129725237397 0.0059123455358)
(0.167315582649 0.106743834673 0.00430412664041)
(0.0996508792422 -0.104412120795 -0.207356455625)
(0.117390821306 -0.0733300769699 -0.122520342305)
(0.100414019117 -0.136433242397 -0.13307525266)
(0.156917755025 -0.0465632426943 -0.0706308902181)
(-0.0917198249486 0.112727018999 0.000671574218857)
(-0.172195045536 0.0459959007435 -0.00393692093739)
(0.0286838021644 -0.134809612446 -0.106380099887)
(0.0760791689691 -0.102075774035 -0.0869682049831)
(0.0810479291536 -0.0817949691778 -0.0224165505196)
(0.0685505136045 0.107204176693 0.00424833760914)
(-0.105079622271 0.050336633278 -0.00232103313772)
(-0.0334901640772 0.0556884573304 -0.00309314677968)
(0.158946725614 -0.115183897647 -0.0700891110531)
(0.224251382458 -0.0509742398363 -0.0184011458497)
(0.168417109341 -0.0929394881089 -0.00513556312409)
(0.228167269312 -0.0668551185568 0.0138652146573)
(0.798453274406 0.000703737322687 0.0132006905236)
(0.795226268039 0.00163158818273 0.0166111202053)
(0.755187824284 0.00155721609529 0.0119812941627)
(0.755052433955 0.00309459109961 0.0125231804841)
(0.796200591321 0.00130611028857 0.0159776251097)
(0.755386347784 0.00313931217184 0.010850566887)
(0.797690092049 0.000833922422884 0.0141930978376)
(0.799134765559 0.00100131814845 0.011364066414)
(0.798026696429 0.00261805992575 0.0123730415826)
(0.755700971053 0.00338249968406 0.0105166544818)
(0.756509644607 0.00282524692829 0.00772569374763)
(0.797221531542 0.0014954252887 0.0138008971254)
(0.799738421708 0.00184565714784 0.0101947187391)
(0.756095376149 0.00320798215872 0.00899916449124)
(0.792176634593 0.00451149753653 0.0139306556282)
(0.795542742895 0.00376852043436 0.0118238624102)
(0.756114456281 0.00365431073913 0.0107200332173)
(0.75772773302 0.00487543756185 0.00920060771201)
(0.794243583534 0.00295726142106 0.0136580966634)
(0.793814393708 0.00576749812255 0.0125839657552)
(0.757232734945 0.00395911441435 0.0110332437258)
(0.801355044393 0.00349962756227 0.00815606295327)
(0.798643280698 0.00378049830064 0.0106836781329)
(0.75703517087 0.00186102563293 0.00660644376942)
(0.757800289037 0.00142090994806 0.00668319504659)
(0.800677516558 0.00278708061779 0.00873315612166)
(0.79981490992 0.00456255355376 0.00965587382854)
(0.75772851832 0.000846164355542 0.00616555597996)
(0.802343826513 0.00409292219162 0.00626614436191)
(0.801963311364 0.00600333475851 0.00639915634022)
(0.757937639336 0.000256396108537 0.00543435823013)
(0.758324476773 -0.00111989123493 0.00421676022782)
(0.800775577842 0.00536288646084 0.00751478766299)
(0.803062848085 0.00486085437829 0.00535021045509)
(0.757744617679 -0.00031248794892 0.00498757359931)
(0.797120330083 0.00741450074306 0.00904206944182)
(0.797348145232 0.00473014091807 0.00970383836134)
(0.758673784635 0.00442078500523 0.00791713137797)
(0.758305209666 0.00215301338184 0.00646303387529)
(0.79544840031 0.00657632212628 0.0103916597335)
(0.798521065814 0.00538452907649 0.00879935482544)
(0.759947164735 0.00319185890102 0.0064174173874)
(0.796336909008 0.00920278246672 0.00860839213434)
(0.79350658812 0.0106414569779 0.00973116576367)
(0.759873751867 0.00541293852551 0.00805132146421)
(0.76299966883 0.00604812698233 0.00485353955734)
(0.79432804954 0.00816746943303 0.00996218284568)
(0.795782546368 0.0114869458724 0.00777078205562)
(0.760897697203 0.00471706277049 0.00626528457034)
(0.79893244759 0.00816574169899 0.00684848629712)
(0.801169673766 0.00696060139197 0.00584706220903)
(0.758706559234 0.0010718070154 0.0053504684861)
(0.761643033379 0.00104381719469 0.00400491111273)
(0.799927089423 0.00620332301329 0.00664303696282)
(0.800448573399 0.00867386947343 0.0056778079217)
(0.760466034562 0.00210662226471 0.00550140107232)
(0.798501337159 0.00976168364164 0.00605674102209)
(0.799813026619 0.0121488902838 0.00349905743006)
(0.764299596416 0.00489246600118 0.00385357690118)
(0.76308933681 0.00204368620112 0.003227638437)
(0.79806090502 0.0119197424832 0.00490501111697)
(0.800218189067 0.0102088201645 0.00491718944843)
(0.761979868582 0.00358562930552 0.00480566957748)
(0.796839615578 0.0162802009887 0.00666281855734)
(0.793885780005 0.0131758690891 0.00963917766517)
(0.763850627784 0.00959261729416 0.00723767972117)
(0.764338291462 0.0080193865293 0.00553762780114)
(0.794196104496 0.016411668722 0.00953607677056)
(0.796505527594 0.01362395578 0.00764613563558)
(0.765142132771 0.00947506697719 0.00428044963322)
(0.799067247345 0.0186502264354 0.00628985354065)
(0.798989613188 0.0213916646786 0.00725626609868)
(0.765080791998 0.0110680471121 0.00701374308213)
(0.765981555088 0.0122098013272 0.00291745380001)
(0.796535570108 0.0189608675395 0.00873245057005)
(0.76634930724 0.0110451335299 0.00433773575277)
(0.801705869771 0.0207957866718 0.00430812653138)
(0.799254993686 0.0158769254619 0.00252068022379)
(0.800497853623 0.0137297249535 0.00309469357825)
(0.765246812336 0.00678820302699 0.0036372972213)
(0.767142918451 0.00567878122754 -0.000427098745654)
(0.798794519298 0.0138653240345 0.00468720138097)
(0.8010343328 0.015347040386 0.000671080511199)
(0.766310799711 0.00815363386016 0.00216834831558)
(0.801249242449 0.0178656494883 0.00245076538846)
(0.804818984695 0.0180707133268 -0.00275200918153)
(0.76663689997 0.0105802642019 8.95312061714e-05)
(0.767769090716 0.00658367366878 -0.00123871739885)
(0.802793526425 0.0169254271496 4.8296104364e-05)
(0.767177116122 0.00948431195554 0.00161274307713)
(0.803680496665 0.0194774194546 -0.000474924830652)
(0.803188198363 0.00873762779608 0.00300977633305)
(0.802384697114 0.00742689428137 0.00435070865824)
(0.761569063566 0.000224658937589 0.00347612472577)
(0.760247175848 -0.00117978012372 0.0026224480325)
(0.801927336412 0.00883589779992 0.00402340096395)
(0.803454335301 0.00756460578977 0.00353329427544)
(0.762255405147 -0.000673830688992 0.00234901360762)
(0.803004032649 0.0100998071691 0.00250024454352)
(0.801552196685 0.0118740967574 0.00186017615578)
(0.763235658288 0.00105426474065 0.00285503233398)
(0.766136489556 0.000353651588252 0.000233819476626)
(0.801755643062 0.0104350788992 0.00350158543201)
(0.802863492715 0.0113489263327 0.00078733307164)
(0.764002096209 4.02793132596e-05 0.00174067800044)
(0.804118454661 0.00989869107368 0.00135399609402)
(0.804694412389 0.0105566504444 -0.00116829072696)
(0.766061638516 -0.000590143572349 0.000379437735226)
(0.76444862994 -0.000862826383345 -7.5022169765e-06)
(0.803974101834 0.0108656075684 -5.4320290697e-05)
(0.804933658498 0.0098624649278 0.000184304386448)
(0.764192183715 -0.000508321665188 0.00127511915933)
(0.803628538881 0.0135317099378 -0.00202429682207)
(0.802158026252 0.0134885636026 0.00147429151285)
(0.767514854898 0.00368236204993 -0.00036589984515)
(0.767134556468 0.000798984948918 -0.000409432978732)
(0.802492979559 0.0145926153375 -0.000878273800974)
(0.803327051788 0.0126209469679 0.000235007186992)
(0.767804401703 0.00109806201981 -0.00216203550105)
(0.80503089303 0.0145224006227 -0.00268626442452)
(0.805663335261 0.0168874542997 -0.00436511954283)
(0.767860003082 0.00394746786888 -0.00146779391476)
(0.767100867497 0.000890125206406 -0.00432605778109)
(0.804067729008 0.0158708868533 -0.0014854325131)
(0.767953473998 0.000940134806344 -0.00308992800369)
(0.806507837919 0.0155873120686 -0.0052755924712)
(0.80470753424 0.0126943824204 -0.00247837146024)
(0.805304669463 0.0114181824935 -0.00167309484747)
(0.767257016791 -0.000286689193994 -0.000234820567752)
(0.767397950133 -0.000749841088609 -0.00281020514951)
(0.804464176223 0.0119753814216 -0.000571634060253)
(0.805575600464 0.0121046659525 -0.00345477517969)
(0.767757679292 -0.000256370506579 -0.00149392194298)
(0.806110093429 0.0137023121124 -0.00298351341091)
(0.80832111354 0.0136127228019 -0.00608883237787)
(0.766866484464 -0.000941333177457 -0.00364623692824)
(0.767350729999 -0.000937617047301 -0.00349496100865)
(0.80703624893 0.0127744480851 -0.00387625556889)
(0.767762447755 -0.000600566204663 -0.00229223324413)
(0.8074242 0.0146367226739 -0.00552046618283)
(0.806850050552 0.011378593229 -0.00470174989085)
(0.805938684051 0.0111851499541 -0.00245809604575)
(0.767167345564 -0.00109877663745 -0.00314210422169)
(0.766774189875 -0.00100144606993 -0.00253587101385)
(0.806329915467 0.0117228419237 -0.00416303491422)
(0.806442367058 0.0109145326766 -0.00301002882283)
(0.766803710004 -0.00125739886694 -0.00356964403508)
(0.808992581022 0.0128353896283 -0.00587786107827)
(0.766894486285 -0.0013237570162 -0.00337761828547)
(0.807685482783 0.0121549156894 -0.00426770309302)
(0.817412472618 0.00551087154574 -0.000689707965921)
(0.819056865472 0.00437481338201 -0.000773703100985)
(0.819938371725 0.00277894637962 -0.000813030754735)
(0.817515217342 0.000309241057685 -0.000325491471105)
(0.809722845153 -0.00079576930317 0.000397260179811)
(0.835587134139 -0.0498623625215 0.000616097804169)
(0.817888651813 0.00593751186836 -0.000181294716878)
(0.819144271181 0.00463077570436 -0.000221312283481)
(0.82016942228 0.00357702350179 0.000120746616849)
(0.818611118033 0.000383596244053 0.00219644114586)
(0.81090696761 -0.00132865276 0.00555694375621)
(0.840515079538 -0.0569793634463 0.00688894759623)
(0.817697411787 0.00619023518248 -0.000398532574537)
(0.813042740241 0.00601674819347 0.00123053928794)
(0.789003827852 0.0107836566359 0.00230429154592)
(0.785417295251 0.011362951367 0.0012634722714)
(0.781626223413 0.0117954391771 0.00244867840053)
(0.7726700618 0.0149204750989 -0.000427870273588)
(0.782027734125 0.01849217464 -0.0313478647225)
(0.712322871027 -0.00968583901736 0.0257852506454)
(0.826874656782 0.0056070108589 -0.000394758515733)
(0.824397524847 0.00299189331572 -0.000221276739484)
(0.820105458173 0.000761829739885 -0.00137690501789)
(0.81854664809 -0.000890638988755 -0.00362577711)
(0.817472712976 0.000181466217621 -0.00402919492177)
(0.818451695012 0.00301472485987 -0.00329802872465)
(0.809783773423 0.0106335865605 -0.000768815507163)
(0.840707800396 -0.0847811909371 0.00976757335119)
(0.820765190207 0.00693566178648 -0.000854640161158)
(0.822786211464 0.00498930517791 -0.00088654408781)
(0.822868314871 0.00393133837254 -0.00142052797999)
(0.822362896247 0.0037021563198 -0.00226303626369)
(0.821228925439 0.0035227647865 -0.00225008686965)
(0.821205347702 0.00300219915292 -0.00130417042782)
(0.812611495331 0.00179703415336 0.000509398321142)
(0.845305069445 -0.063837578934 0.00379188675795)
(0.817049355054 0.00806815636632 -0.00109549543187)
(0.8197795107 0.00524184082272 -0.000876506843159)
(0.820893460672 0.00339508493179 -0.000965084206971)
(0.821038786154 0.00214723332448 -0.00123876254403)
(0.82020537624 0.00156672075334 -0.00145263036602)
(0.820128011135 0.000726402014501 -0.000664439446282)
(0.81149270111 -0.000551918498795 0.000907029911188)
(0.840265680548 -0.0675219555342 0.00245092242708)
(0.819438596003 0.00225804431726 -0.000979926778835)
(0.81907366992 0.00103620806193 -0.000398687153013)
(0.810536110686 -0.000490963302557 0.00060789085387)
(0.838166559691 -0.0527856685568 0.00110124029746)
(0.639749127455 0.0423033121547 0.00973710317481)
(0.635627781721 0.0404239584526 0.015322795899)
(0.645359595058 0.0252871445287 0.0180119158816)
(0.642753587375 0.0220863862561 0.0159437121603)
(0.638991663783 0.0215279667863 0.0175049820122)
(0.595419560349 0.0230411338715 0.0215886026181)
(0.681918854215 0.029449097696 0.026021672111)
(0.151691339951 -0.0177170577427 0.0633265293256)
(0.77445350839 0.0137921988455 0.00566263170234)
(0.770593322649 0.00944060413535 0.00826701066554)
(0.775558104837 0.00315390459841 0.0108797394468)
(0.773128181525 0.00190376728628 0.0125681455523)
(0.772086571691 0.0040725046192 0.0133354582862)
(0.772044494856 0.00790990638628 0.0185380562604)
(0.771142784242 0.0512312579016 0.0312544648969)
(0.803759952459 -0.184173921711 0.0497005501205)
(0.822528831987 0.00790156691292 -0.00157632425227)
(0.822335637349 0.00635688686521 -0.00100976428777)
(0.821837999454 0.00647502817251 -0.000736982321044)
(0.821852184471 0.00715184027563 -0.000512564999403)
(0.821636759563 0.00769026078897 0.000824963861454)
(0.823811633408 0.00718511180265 0.00441995247584)
(0.816792196172 0.00508938362651 0.0134540604518)
(0.887138686834 -0.113776395556 0.0184421460039)
(0.817712275502 0.00761116040782 -0.000831202682474)
(0.819953313057 0.00520077226255 -0.00061164810381)
(0.820862011127 0.00432702321368 -0.000305662908195)
(0.821013233169 0.00367810927126 -6.72674521716e-05)
(0.820815916879 0.0029761813473 0.000939431104222)
(0.822689011998 0.00158795504547 0.00403399639585)
(0.814919854453 -0.00051981546266 0.00979091643059)
(0.856557567861 -0.0847422358612 0.0132408219343)
(0.819926006506 0.00301303889875 0.00085011390726)
(0.820708531483 0.00144414674778 0.00320290689884)
(0.812281166749 -0.00111930737955 0.00715034174111)
(0.846879944884 -0.0659381234508 0.00875785078711)
(0.633122815319 -0.0154055949995 0.0145846967718)
(0.628603749366 -0.0151335072611 0.0210192964056)
(0.635225315795 -0.0194891877477 0.0225536339488)
(0.63376378131 -0.0185163834709 0.0233945050486)
(0.636463925464 -0.0147089949462 0.0256907619492)
(0.630784405982 -0.00296105065228 0.0288973320374)
(0.686228639815 0.0603717955323 0.0760457552313)
(0.584586568569 -0.413654816861 0.0168858300365)
(0.733603049636 0.00702512676704 0.0196294437197)
(0.732113893191 0.00106604729424 0.0236277323749)
(0.784041156654 0.000957918598059 0.00844611391393)
(0.782965847242 0.00063773918152 0.00987747836672)
(0.784503199972 0.00223511394683 0.0108621682183)
(0.793495362096 0.00127634813919 0.0110338593597)
(0.80473725651 0.0153128957758 0.0155849586536)
(0.911468780438 -0.210160092471 0.0105781659938)
(0.822225783287 0.00775472824431 -0.00227749473418)
(0.823350576548 0.00692833389004 -0.00233339509303)
(0.823509588201 0.00433866087868 -0.00254830124697)
(0.823870315103 0.00271237416193 -0.00298739679048)
(0.825430406379 0.0025724655145 -0.00279975696543)
(0.83247708653 -0.000127365146965 -0.000682933827693)
(0.8256486512 -0.00554544991067 0.000666621336625)
(0.921582362389 -0.189537479318 0.00196027397555)
(0.815023926319 0.0113056567049 -0.00235506679684)
(0.818195999458 0.00841437961713 -0.00186308281121)
(0.820133923704 0.00583542872708 -0.00158099961409)
(0.821600149301 0.00419093569191 -0.00179910147373)
(0.822627540732 0.00332263951612 -0.00246176555807)
(0.823681905913 0.00240123765497 -0.00170032008074)
(0.828490569792 -0.000710012488051 0.000344501833245)