/*--------------------------------*- C++ -*----------------------------------*\
| =========                 |                                                 |
| \\      /  F ield         | OpenFOAM: The Open Source CFD Toolbox           |
|  \\    /   O peration     | Version:  v1906                                 |
|   \\  /    A nd           | Web:      www.OpenFOAM.com                      |
|    \\/     M anipulation  |                                                 |
\*---------------------------------------------------------------------------*/
FoamFile
{
    version     2.0;
    format      ascii;
    class       surfaceScalarField;
    location    "12.15";
    object      alphaPhi0.water;
}
// * * * * * * * * * * * * * * * * * * * * * * * * * * * * * * * * * * * * * //

dimensions      [0 3 -1 0 0 0 0];
oriented        oriented;


internalField   nonuniform List<scalar> 
92311
(
0.204170292617
-9.93749526606e-05
-0.00123122652077
-0.203872699202
0.00103386016492
-7.46949614574e-05
0.204309591645
-0.000996057492665
0.00093175255771
0.204277262068
-0.000143835407619
-0.00130508692619
-0.2040143025
0.00108706696069
1.9944999759e-06
0.204300114617
-0.00103117450752
0.000931959812228
0.204348163828
-4.05659502724e-05
-3.38894918596e-05
-0.00138011264517
-0.204076029869
0.00107831181539
-2.48548362827e-05
-1.48004566234e-05
1.18998277035e-05
3.14934029128e-05
5.00156005684e-05
0.204336166307
-0.00110857562244
0.00100622805587
2.29588526938e-05
0.0513845825402
-5.77570492381e-06
9.43505837438e-06
-1.35565195926e-05
1.33876020784e-05
-0.000347623586483
-0.0513632777785
0.000282261906534
-0.0513366969963
0.0513236950199
1.94938980996e-05
1.72212243216e-05
2.009204192e-05
1.32186280375e-05
-0.000346522515734
0.000301265700248
1.03329322477e-06
-0.000760205939915
-6.55700146953e-06
2.69192302446e-06
-3.91633789637e-06
7.41483410661e-06
0.000534010865581
1.02394657345e-06
0.000192028470968
-0.00125457901787
-3.89959164895e-05
-9.9435024455e-07
0.00114778935314
-1.73191630825e-05
-3.30374328921e-05
-2.04997863831e-05
-3.09727560251e-05
0.000208024970114
4.86538394626e-29
0
0
0
7.55844212512e-29
-5.02770629996e-29
-6.78057917376e-29
0
1.18154620057e-05
1.95383185128e-05
2.0890944852e-05
1.48714866171e-05
-0.000344506494502
0.000291377839526
-4.87144564786e-06
0.0100764195573
6.65615707381e-05
-5.19047869924e-05
-0.0100787846574
0.0100759081647
3.49592613552e-05
-3.65036300882e-05
-0.01008228097
2.1026324043e-05
-1.09389582653e-05
0.000295414078447
2.40351717471e-05
0.051326388392
9.54725868329e-06
2.33294446563e-05
1.28020677064e-05
-0.000336444007867
3.19667004734e-05
0.0513060467067
3.6824441937e-05
3.12827130636e-05
3.20849738759e-05
-0.0513268894493
0.000234076222398
3.69004655677e-05
-2.8280976048e-05
0.0100629966091
1.2180472145e-07
8.83273965421e-06
9.13276782944e-05
0.0127729926601
-0.00010030868546
3.21563719492e-05
-0.0127740624639
0.0127737596706
8.4217081698e-05
4.20013220596e-05
-0.0127789949835
-0.000196132344603
0.204237989597
-0.00194485952981
0.00166115055379
-0.203756938729
0.20433547086
3.31296612316e-06
-0.000600977562268
0.000571776072356
-3.34411161966e-05
0.204406134577
-0.000461871962566
0.000423974041134
-0.00034028822347
0.204322157096
-0.0018743428699
0.00162138054042
-0.20392464427
0.204422851256
-4.49858503598e-06
-0.000752824491658
0.00063794174979
-8.39933453704e-05
0.204617018906
-0.000569437517538
0.000425357701678
-6.63812654514e-05
-7.88022454553e-05
-7.91910556157e-05
-0.00195242055916
0.204292540809
0.00162563086936
-0.203997336247
-8.42021083474e-05
-7.40778918159e-06
-5.10726249996e-05
7.66594287387e-06
-2.77250757446e-05
0.204528661228
-0.000734476733502
0.000616056715584
0.0513322420885
-2.78204387429e-05
-2.97873808908e-05
-2.52839277371e-05
-3.03621838032e-05
-0.000530458716353
-0.0512027500117
0.000447814624961
0.0513258589755
0.000290657564157
1.92539669503e-05
6.3043779152e-07
1.49847564241e-05
-9.45679016422e-06
-0.000322995698165
-0.000293766170676
-1.10924886184e-07
-0.00129967206897
1.46013587133e-06
-1.03171135513e-05
1.77105624983e-06
-9.53745875552e-06
0.000333401827931
0
3.16165959956e-27
0
-4.18591028545e-27
-1.80583442211e-33
0
0
1.02425249172e-27
0
0
0
0
6.55347436208e-30
0
3.39375071072e-28
0.000457415185913
-2.00884354631e-05
-1.56805081169e-05
-1.89721590945e-05
-1.36134933126e-05
0.0513795912023
-0.000515240433494
-2.29690850069e-05
-8.43417977764e-06
-1.76471495606e-05
-6.08298418744e-06
0.0513744253797
0.000369581649169
-0.0513108189821
-7.64728572124e-06
3.17708279224e-05
0.01013547722
7.62094979937e-06
5.17340063969e-06
-0.0101598042987
-7.39240110172e-06
1.25939248537e-05
-0.010110808723
1.58573899675e-05
-1.12126689448e-05
0.0101144157087
-1.86494029893e-05
0.0128240947576
-9.98251024267e-05
8.73781686863e-05
-0.0128144551135
0.000258484848501
4.55316343936e-06
-2.88565621429e-05
-1.93619847711e-05
-9.02283147721e-06
0.0513459375712
-0.000276988675784
0.051271356194
2.66635962119e-05
2.93778686889e-05
3.36758289959e-05
1.97295612385e-05
0.000223479154138
2.21495075513e-05
8.20363101624e-06
1.133413192e-05
-5.61848952657e-06
0.0512615188329
0.000204347114838
8.67311542239e-05
-9.75591463536e-05
2.91286656693e-05
0.0127736267881
-2.79287038704e-06
1.81688362956e-05
-0.00990544012179
-0.000140593968233
0.00988366310663
0.00014622449758
7.79986191782e-05
3.77285632585e-05
0.0127703287866
-0.0127615706708
2.91187828966e-05
0.0127650005085
-6.16094048077e-05
5.09444785246e-05
-0.000971613903441
-4.03177819103e-05
-3.55489024733e-05
-3.85974519984e-05
6.77015165138e-05
0.0002136524857
-1.03944620056e-06
-1.56452417482e-06
-5.23132471599e-05
-7.01486367055e-05
-6.73765555406e-05
-6.05359041675e-05
-0.000439320032715
0.000163888126852
0.000464704584379
-2.44684421222e-06
-7.24869071045e-07
1.27042043875e-06
1.38364215119e-06
2.73583873379e-06
-1.15815020758e-06
-4.61428303104e-06
-1.07285130285e-06
-3.58193474784e-05
-4.33052485993e-05
-4.57827742572e-05
9.89020862246e-05
0.000166251109575
-2.25978887651e-06
3.31686974954e-06
2.18283198028e-06
8.26635932107e-05
0.0128262246757
-9.35835278531e-05
-0.012825877561
-0.0128273179364
2.36941209386e-05
-8.36703998527e-05
0.0128234552601
7.33768244849e-05
5.32602443706e-05
-3.21179793066e-05
0.0100944336327
-4.13159361961e-05
4.27133062904e-06
0.0100890389953
-0.0100877756583
7.6771178713e-05
-0.0128254865896
7.20247145847e-05
0.0101043259445
6.40123521188e-05
0.0128190287545
-9.54333541568e-05
0.0128056579754
3.81630901151e-05
-9.03180067148e-05
8.15587005175e-05
9.57436128506e-05
-0.012798565814
0.0127865909063
-0.000102005590553
3.76477805873e-05
-4.23766216264e-05
-2.47960894484e-05
-3.89417901281e-05
-0.0100928259801
0.010091457045
3.10338810293e-05
0.0127942393832
8.84565720911e-05
4.9921653916e-05
-9.81316015431e-05
-0.0127843195279
2.89297031823e-05
-0.000101887389731
0.0127806260721
9.4322577897e-05
0.000100988772303
0.0127765953876
-0.000103550984501
-1.66147906334e-05
-1.37936452155e-05
0.0100305296019
2.67985613809e-05
-3.60416379451e-05
0.0100799860531
8.72604272833e-06
9.38593519987e-05
0.0100476043461
-6.15728644596e-06
0.0127752707092
-0.000103250688334
8.12940459706e-06
-0.0127706368484
0.0127726048456
-0.00010232731424
-5.66796348322e-05
-0.0100129950305
0.0099839082971
7.31611244074e-05
-0.0100259918716
-4.05087251674e-05
0.00999811807905
3.3827798523e-05
-0.000100622558976
9.40410786692e-05
-3.9732861065e-05
-1.74463390599e-05
5.0814359428e-05
-2.52604244833e-05
-0.00010345210336
5.80254652738e-05
-0.0127822387772
0.0127721075775
7.15151862998e-05
-3.8661116098e-05
-0.0100704144446
0.0100426520622
-0.010083040778
0.0100542596585
-4.30604713261e-05
8.32608671639e-05
5.17553079069e-05
-0.0127904220561
-5.53549494764e-05
2.81246753878e-05
-0.0101097519032
-3.18086331056e-05
-0.0127962476959
7.29825314053e-05
-0.0100915272639
2.34271123367e-06
4.76481238526e-05
1.12918555621e-05
8.34826734091e-06
8.99064192677e-06
1.1460408327e-05
-0.000448019640454
0.000293175178596
4.68545556964e-05
-1.96666481641e-06
-8.44352514421e-06
6.59644356838e-06
7.86975674094e-06
-0.000365815277514
2.68561164718e-06
7.53907532994e-06
1.04023332144e-05
9.99016131364e-06
-9.74430714061e-05
9.25854289815e-05
0.00029927298893
2.22559948309e-06
8.55900297232e-06
7.98931048701e-06
9.77614892107e-06
-0.000543165777902
0.000164997412861
-7.77077204771e-06
5.83567433705e-07
6.49498019086e-06
2.74056534221e-06
2.00889491036e-06
-7.9328737238e-06
-8.45763563453e-07
-0.000599212607701
-2.55168484542e-05
-4.18388573628e-05
-4.00568507657e-05
-2.32352561767e-05
-1.93065588686e-05
1.32190672641e-07
-7.86285283456e-07
2.76088414429e-07
-1.02006012911e-06
1.07326228684e-06
-3.44619376236e-07
0.000466676808622
-8.34173302504e-06
-4.20415542583e-07
2.66175515533e-06
7.4554583429e-07
-0.000818282188735
-0.000225616888393
2.68060777738e-07
-9.57866085374e-07
4.76298475259e-07
-1.83757716112e-08
2.45136957596e-06
2.90240168989e-06
8.74823656618e-08
-0.00127199983098
0.000422847253425
-8.47889653985e-07
1.22779816454e-06
-0.000114948386765
-0.0128017964472
-2.90316688197e-05
0.0128111009522
0.000108464011365
0.012802314189
0.000111764383658
-0.000122502069154
-0.012788398232
2.46940614395e-05
1.03967910843e-05
0.0101175466574
1.30801402928e-06
3.97303898791e-05
0.0101238371758
-0.0101512678128
2.51707190488e-05
0.0128121352178
-0.000123883718495
-0.0127843516645
0.000105068861902
0.0101049919919
2.59839080188e-05
-0.000118026333526
0.0128196295957
-2.03572993619e-05
0.000110942413239
-0.0128188118137
0.000122633911847
-0.000126441150488
0.0128199086281
1.86652629606e-05
1.26118213161e-05
-4.94650334261e-06
8.0809101407e-06
-0.010096914757
2.39249307272e-05
0.0101025525897
-0.000124041861068
0.000115805550442
0.0128212575564
2.38566638595e-05
0.0100627932794
-4.98223045265e-05
7.66420155457e-05
-0.0100804609589
-3.92485283784e-06
-4.73236053974e-05
0.0100738578097
7.02758374043e-05
-0.000103930224495
0.0128275227407
8.84260671272e-05
0.012823373754
-1.48633076598e-05
-0.0128138782813
-3.09020966093e-06
-0.0100775299112
0.0100856057379
0.0128261788969
-0.0100900918969
7.48899757815e-07
0.0127792686036
-0.000104503256079
-7.57590739509e-05
0.00996143276428
9.72464379872e-05
0.0099892638484
-5.83872776589e-05
-9.32704282216e-05
2.31381045461e-05
0.0127771485195
8.15249333047e-05
8.54248375457e-06
-0.000101688618753
0.0099318062943
0.000120511002438
0.0127881837359
-0.000102815831518
0.00997049300604
-7.98720274266e-05
-8.5669621984e-05
0.0127823185714
1.30667921015e-05
7.24847805154e-05
-0.0127940997961
7.58661647532e-05
0.0127978349852
-8.89993726512e-05
1.3489524614e-05
-0.0001216463802
0.000134195884134
3.25584571703e-06
-0.00995335176225
-0.000123370401934
0.00992968746147
-9.68165125509e-05
6.3892392257e-05
0.0127898144047
-0.000101586089713
-0.0127619753164
4.07292930779e-05
-7.22496472783e-05
6.06827554648e-05
5.34037482971e-05
6.70000605387e-05
-5.23119761074e-05
0.0100336795403
0.0100482599749
-5.21472846668e-05
6.8109408904e-05
0.0100287973529
-6.49469988315e-05
2.74780744827e-05
0.0127716552046
0.0100106481658
0.0100246468124
8.53501563805e-05
-7.72390049902e-05
-1.41554927618e-05
0.00010691173415
0.0100125191788
-9.77032429785e-05
-5.20720872379e-05
0.0127700751485
4.0938172624e-05
0.0127754809427
1.83383221402e-05
-1.9388643258e-06
-0.00999958796473
0.00997452813499
0.0127803068244
-0.000134822738894
-0.000129165398633
-0.0001519990695
-0.000388579412915
0.205102517097
-0.000127631996713
0.000274450612627
0.000202832357291
-3.69983643022e-05
-3.92242146974e-05
-4.50062564198e-05
-2.72558055886e-05
-0.000218834899381
0.0513756860277
3.14670062561e-06
-0.000495745374466
-7.18583732725e-08
3.29398624636e-06
4.98328025023e-06
6.3623697565e-06
0.000403565628934
-0.00119406929368
0
0
0
-2.68435575933e-29
-4.3043872143e-29
0
-1.82207183991e-29
6.07244286843e-06
-7.64855629281e-06
-9.04519450284e-06
9.99155322184e-06
7.72475424049e-05
-0.000429864972228
0.0513798384424
-4.94270565271e-07
-1.02443697711e-05
-3.35303317974e-05
0.0100707982859
0.0512936306172
-4.41662970986e-05
-1.50571461136e-05
-2.98004214144e-05
-3.13931611141e-05
0.000161744580801
0.0513454004449
-4.54686919751e-05
-5.19731103439e-05
-4.45941443026e-05
-4.22133202159e-05
-0.000141273189412
0.000121710085421
2.38483112921e-05
0.00986197054893
-0.000145540598599
0.000147288986616
-6.27665167664e-06
2.61720357101e-06
0.000122421750278
0.00999335618444
-0.000106353846565
0.0098729462744
-1.14203654246e-05
4.74329061188e-05
0.000132482586108
-0.00990989695707
-0.000124730769601
0.0513883065909
-3.55876120295e-05
-4.37615845902e-05
-3.66835137739e-05
-3.95357406138e-05
0.000123118412262
-9.28945762359e-05
8.2498233466e-05
-1.86843720785e-05
-1.76911545023e-05
-1.40801470938e-05
-2.13049893958e-05
6.22442071979e-05
4.00723918059e-06
0.051380724857
1.32346117301e-05
-7.2629877499e-06
4.04168790834e-05
0.000119579067485
0.00985009693466
-0.000118954201297
-3.16182627589e-06
2.04440862064e-05
6.64027535844e-05
-0.00983454382492
0.00982700470745
-6.99785665644e-05
9.529348709e-07
-7.15396668985e-06
-5.21855694048e-06
0.000256463344694
-0.00070168172764
-9.19178494345e-08
-0.000930439673627
-1.56685141593e-07
6.32481611827e-06
1.10077623896e-05
6.94188760121e-06
-0.00039943535989
-1.55385676327e-07
-0.000913012065747
7.02653881673e-06
1.06988076099e-05
6.39098578932e-06
0.000437096523147
-0.000465960560989
2.24058709402e-07
3.49719411752e-07
-2.9930515537e-07
-3.97609062762e-07
7.25097292423e-07
2.08945556628e-08
3.15274172304e-07
3.51846441039e-07
-0.000819480667661
5.96682054829e-06
6.50466684672e-06
5.75347287239e-06
0.000205986376564
-2.32934374038e-07
-0.000294849442243
3.28834158509e-06
4.05787291957e-06
4.04801169885e-06
-0.000216056903074
-3.78613812559e-07
-0.000615843106436
4.65168065809e-05
-0.0128202421761
2.40573938127e-05
0.000109819873419
-0.000118229050689
0.0128090652021
-0.000107648645015
0.012823503172
-6.7784328776e-06
0.0100811736261
-1.77875972128e-05
-2.55980313862e-05
-3.33704813816e-05
0.0100787598057
-0.000118082781015
-1.29143479967e-05
0.010079328535
0.0128133768209
-5.33769126985e-05
-0.0127971813292
-2.97726005557e-05
4.25390707662e-05
0.0128030076732
0.0128016160203
6.39877699521e-05
-8.13530136422e-05
3.04546540316e-05
-0.000149608591693
0.000149300900861
0.00983746490696
2.09878926601e-05
0.0099003357056
-0.000134385715785
-7.0875583257e-05
0.0128062158602
5.2243710923e-05
-0.000140980564164
0.0098698558871
-0.0127867111856
-3.14658097014e-05
2.55598818891e-05
0.0127919084299
-4.02533467759e-05
0.0127704775781
2.753813949e-05
2.32412455765e-05
0.00993852655428
0.000137347880561
3.26917229432e-05
0.00995652515243
-0.000120438775272
0.00990831883222
0.0127783274142
1.93765289024e-05
0.0127988034724
-3.41198597227e-05
1.2987725972e-05
-3.05568028865e-05
-4.09811226e-06
-0.0127908808071
0.0127925514714
-1.66560901034e-06
3.55279216352e-05
-0.00988100240935
0.00985968721736
0.000134054391591
0.000138266425408
4.90940595787e-05
-0.00012602955292
0.0128024541491
-1.63479701988e-05
0.000139627596317
7.8082067992e-06
-0.0128048949793
-3.21258810296e-05
-1.24116240064e-05
0.012805018911
9.53821440917e-06
2.70067048168e-06
0.0127952414925
-8.13084458487e-06
3.17943525764e-05
0.00984067442821
0.000121639939464
0.000102917476294
3.43073845902e-05
0.00984024637987
-0.000104783481219
-4.30321703525e-06
0.00981841111995
0.000104724050555
0.0127942666359
-1.5873491675e-05
0.0128097961944
-1.97628283001e-05
-2.25052443021e-05
1.96809680999e-05
3.52095310649e-05
-0.0127973805539
0.0127986145271
-3.31037872147e-05
1.39923514581e-05
-0.00980526219485
6.73176644514e-05
0.00980001329693
8.50958053761e-05
2.29432353539e-05
-8.70167459397e-05
3.31668192988e-05
0.0128128716247
8.7105940545e-05
-2.33081193692e-05
-0.000491397101864
-0.0497637862928
0.0495329194947
0.000535884552923
0.000149511752671
0.000150598753277
0.000163910405474
0.000144669834368
-0.000422675721802
-0.000605851677882
0.0500640586251
5.79585114508e-05
6.96569624106e-05
6.71205163996e-05
6.29659558395e-05
-0.000154647272197
-0.050146458649
0.000585373860972
-0.000992190630428
-0.0500840981532
0.0501759961636
0.000859232139181
-2.53729881654e-05
1.27036504701e-05
-1.5101301808e-05
3.61490328828e-06
6.52637489345e-05
-0.000751497474
-5.11147232307e-05
-2.95028982306e-05
-4.65345616168e-05
-3.39346513592e-05
0.000145029969089
0.0503687098024
0.000691271240937
-0.0502922937727
-0.000156917624163
-0.00011668661507
0.000280370359706
0.000112900675438
0.00026329877802
-1.4781906835e-06
-0.000155028046294
-0.000133729106498
-0.000130422016807
-0.000109094424354
-0.000466832583179
0.000743952129119
0.000349074386818
-5.65629653791e-07
-9.00182791775e-05
-7.55767297823e-05
-5.87890305676e-05
-0.000145039148093
-5.94035510375e-05
-0.000270030428461
-0.000555144949211
-1.15319321616e-06
-4.78404771221e-05
-4.41740441091e-05
-3.74326352657e-05
0.000884398132355
0.000158122201552
-3.39123507582e-05
-0.000387361059857
0.000228283347414
7.77311041009e-05
0.000251582294112
-5.8493477784e-07
-2.21549413241e-05
-1.73953242584e-05
-5.07007904238e-06
4.28388498403e-06
-6.31518924891e-05
5.27970916776e-06
5.54692700355e-06
7.23681147672e-06
-0.000415144896663
-0.00011812061937
-1.26623073403e-08
0.000584220254107
-2.45711534303e-09
5.70830782656e-26
0
0
1.57934711494e-09
8.77768228084e-10
0
6.66611447092e-30
5.40499406874e-27
6.94250970059e-08
5.58936063736e-08
5.02730747608e-08
2.1500807296e-08
-3.03075538447e-08
1.68748929425e-07
-4.78053148845e-26
1.99940097251e-28
0
0
0
0
-1.27098654344e-26
1.0228819271e-28
0
0
0
0
0
-3.00117712714e-28
0
0
0
7.49891519394e-28
8.07142320736e-30
0
0
0
0
0
0
1.86232959333e-29
0.000170499442538
0.000176081784338
0.000212223197171
0.000212718306815
0.000177400338781
0.0495231215109
-0.000385297901904
-0.000125257253615
-0.0499614363169
0.0495588440095
0.000309725081948
0.000159818711691
0.000184972699933
0.000195904545292
0.00015127603435
-0.000390319092525
-0.0499997638322
0.000206503835358
-0.000283211002799
-0.0105003388575
7.36750102214e-06
0.0105169739299
4.53674096276e-07
0.010602183823
1.86948901225e-05
0.00017246790858
-0.000219866672965
-2.07808689783e-05
-0.010596690303
0.000206737627454
0.000184556874334
0.000196163291118
0.000197035621977
-0.000352926550273
0.0123185871107
0.0122312922068
0.0122884872001
0.012323768119
-0.000525930431654
2.79383212748e-05
0.000165659504892
-0.000214594926401
-2.43533674341e-05
0.0106018300809
0.000398872457037
0.000128120364037
0.000160878196832
0.000130778387456
0.000152762808021
-0.000351504297689
-0.05007405121
0.0499523930159
0.000108191816542
0.000118943541509
0.000127030569429
0.000103656918968
-0.000351728855655
-0.0501304436651
0.000470835919055
0.0106259496994
0.000158611736822
-0.000195044361857
-0.0106178166083
7.06691739246e-06
0.0106774875239
9.47965154436e-05
-0.000124512036621
1.47808505591e-05
-0.0106698862903
-2.13058886608e-05
0.000814147059841
0.000134434053885
0.000149090995666
0.000150820098704
0.000127262464727
0.0493460451788
-0.000221563014829
-0.000167314236009
-0.00021643216491
-0.00018146351392
-0.000117806349225
-9.03747262267e-05
-0.000106965572988
-8.70789348162e-05
0.0497694077334
0.000110134788828
0.00010165791094
0.000108025361273
9.96599698798e-05
-0.000306308031775
0.0497955776814
0.000785423887299
8.8127005182e-05
6.62402483359e-05
8.09384981886e-05
7.92525277498e-05
-0.000311872476915
-0.000184011923777
0.0106269975787
1.33827424578e-05
0.0106623679776
0.00011834340769
-0.000156249342497
-0.0106513861845
6.60840230183e-05
-7.12246215912e-05
-1.82080078948e-05
7.93016883815e-05
-0.000110670377728
1.08967374937e-05
0.0106901101209
0.010717248453
1.71319435041e-05
5.12268083027e-05
-5.07556469567e-05
-3.94322927705e-05
-0.010715719286
0.0499222963208
4.24978195364e-05
4.60031435102e-05
6.30864975224e-05
2.00384536322e-05
-0.00109190461229
-0.00019843803445
0.0011752056968
4.309016361e-05
-7.12403923306e-06
1.57830943647e-05
1.96348806092e-05
0.0504515490861
-0.000280206927043
-0.00149542923129
-0.000142191364585
0.0106669065337
9.13398239e-05
-9.41980762127e-05
5.95803998709e-05
-8.88164935713e-05
-0.0107027479353
0.000161396427039
0.0107197441097
-0.000169449282347
3.72734864949e-05
4.27496296257e-05
-3.30751859123e-05
-6.20777151012e-05
0.0107135657046
7.90824846981e-05
1.33183597352e-05
3.51699517499e-05
-0.000118915413306
-0.0106930360089
0.010671336116
0.000718787347865
3.83162407705e-05
3.11398965971e-05
4.59831801795e-05
2.21257914807e-05
-9.08300286516e-05
0.0502286579713
2.36617172485e-05
1.94397105179e-06
1.0368556531e-05
1.75750111713e-05
-2.78279634929e-05
-0.0502084910656
0.000673072726742
-8.93681236862e-05
0.0106816007986
-2.30892164306e-05
-0.0106691789001
0.0107168718274
3.14061765621e-05
-3.5265034213e-05
-0.010711423608
4.09495499269e-08
0.0107339068179
-1.54086956933e-06
6.59451942658e-07
1.97270854059e-05
-0.0107308163193
-2.26065963516e-05
0.000986110986467
-2.94945872469e-05
-4.38989558761e-05
-1.98802669798e-05
-5.28128764235e-05
0.0504560940639
5.51015469921e-05
0.050316613763
-2.94725395934e-05
-1.41703760109e-05
-4.5732493442e-06
-3.41208309886e-05
0.000102310602837
-3.73261325065e-05
-6.2835247578e-05
-4.26074828503e-05
-6.05834762594e-05
0.0505089485654
0.000829283787897
0.00016806526508
-2.0390008469e-05
0.0107144522304
1.16899636952e-05
1.26672748726e-05
5.5127394739e-05
-0.01068564097
3.27513963964e-05
0.0106517430909
-1.94483766046e-05
-1.46973806701e-06
1.26502114439e-05
1.46354480667e-05
0.0107274580008
-3.34022025827e-05
-6.90265558129e-06
7.95977879505e-05
2.47621353663e-05
-0.010666404546
0.0106118856727
2.8615329547e-05
0.0107124979669
-2.04637220497e-05
-0.0107236112216
7.40167584032e-05
-0.0106412477649
0.0105894434777
-7.65260955796e-06
-3.51425410754e-05
-6.08282496148e-05
-0.000184146601899
-0.00019937249467
-0.000176139621449
-9.02487617059e-05
0.000231038989083
0.000554028253662
-6.60599152766e-06
-0.00015432817843
6.34287842259e-05
-0.00019385816789
-0.000149501496295
-0.000168119872265
0.000588160382912
-5.06885129927e-06
-1.75755928072e-06
-0.000189685325819
-0.000170099345522
-0.000192341288581
8.79595250108e-05
0.000286297860883
-5.10107393255e-07
-2.97329224386e-07
2.21278827955e-06
2.30819550901e-07
1.37234155361e-06
3.02902166726e-09
-3.37720751907e-08
1.80106529292e-06
-2.14931442197e-07
-3.83649175725e-07
-4.13168057978e-07
1.05809081848e-06
4.81639830512e-08
-1.23881792125e-07
1.52529773107e-06
8.94639442226e-08
-3.20325395957e-07
1.43896938957e-06
3.70545920328e-07
-4.43436180923e-07
9.98785779437e-09
1.04115232318e-06
7.37396316307e-07
5.268589854e-08
-1.7453375859e-07
9.93615241296e-07
-1.80900294951e-07
-1.4898911985e-07
8.92132515657e-07
0.000147677491708
-0.00014450430671
-0.000142462966988
-0.000130850631515
-3.98127790592e-06
0.000658756020058
-0.000585256079417
-0.00011420281684
-9.20872531156e-05
-0.000109993181775
0.000891188071364
-3.00898323733e-06
0.000167974985163
0.000353434966631
-1.13796406385e-06
-0.000126013143791
-8.21107398113e-05
-9.1771247703e-05
-0.000158837627301
-0.000235191586517
-1.4539031247e-06
-0.000103000636362
-7.17871029989e-05
-9.39748192943e-05
-1.0744459777e-06
0.000117766861426
0.000352387602836
-7.39753000037e-05
-6.00285532244e-05
-8.06053448111e-05
-2.63956936064e-07
-5.68551935096e-07
7.62165684862e-07
-3.00179419925e-07
1.19650882982e-07
-2.15134139686e-07
-8.65823776697e-07
8.54557202592e-07
2.0287683832e-07
-4.99359255847e-07
0.000274500210381
-4.9299038038e-07
-5.68031884192e-05
-2.77194764056e-05
-3.86723243539e-05
0.000894867184088
-8.44134484505e-05
0.00040445526238
-6.62422660437e-07
-7.04000186933e-05
-2.6322794143e-05
-5.40454785903e-05
-4.62098952013e-07
0.000347174554728
-3.46518114938e-05
-1.94091739114e-05
-4.02558341144e-05
0.000551194363183
1.46155028142e-07
-2.18888001319e-07
-1.21850900904e-07
1.54178922841e-07
2.96783315809e-07
-4.25866248171e-07
-1.24150197538e-07
3.44837417482e-07
0.000215010936049
-7.82107248446e-07
-3.96552995586e-05
-1.71410930637e-05
-2.6603695439e-05
-3.43786352717e-07
-0.000453676993374
-2.56881947489e-06
-2.1815722174e-06
-8.76272741889e-06
0.000697842128375
3.61222797817e-05
2.34767118882e-07
1.28496883495e-07
-7.63037869097e-07
-5.20200032666e-07
5.63191910745e-07
7.46379931806e-07
-3.60687993612e-07
-3.84371059651e-07
0.00026533688214
-2.89269079948e-07
-1.99455633892e-05
5.64057748966e-07
-6.29730229737e-06
0.000262978143699
-0.000207628496491
-2.77217300325e-07
-5.03294487989e-06
3.74777291301e-06
9.27753670282e-07
-4.53663735992e-08
3.47730395536e-06
4.29951084313e-06
1.73257950228e-06
-3.15582841003e-05
9.31208607925e-05
6.53157836407e-07
-4.91058590516e-07
-2.20519097398e-07
7.89644481212e-07
9.46252852835e-07
-4.05528573714e-07
1.27766735158e-06
-3.57296802024e-07
0.0124821912579
0.000233240440535
-2.9437420062e-05
2.57020493296e-05
-0.0125366060742
3.96725542789e-05
-0.0124671727381
0.0124010833582
-4.53941816426e-05
1.17702106744e-05
-0.000240568137324
-3.87928007145e-06
-0.010499616775
-0.000282767443414
-0.0105257775316
2.2696789742e-05
0.0105404131427
3.47280017476e-05
0.0124162451997
2.46766347659e-05
-0.0105320349904
-3.5576714142e-05
-0.0125250321645
0.0124968143757
3.1173702801e-05
0.000202255260831
-0.0125454766364
-3.94551334841e-05
-0.0125071386575
0.0124547510198
5.64315313904e-05
-0.00024928970967
-0.0105635856748
0.0105703416074
-0.000178606112677
-2.0908218989e-05
1.82402571959e-05
-0.0106059645044
0.0124380617678
4.63443365847e-05
-0.0125501359133
-0.0105723657924
-0.0123861325536
8.78416320602e-05
0.000248430287129
-8.26567191012e-05
0.0123385017008
-6.23255070853e-05
0.0124121706769
7.41890017033e-05
-0.000244374353405
0.0105723482285
-2.10373638071e-05
-0.000223408431347
-3.19588417703e-05
4.11429982547e-05
0.0106055184339
-5.93323637134e-05
0.000100596396674
0.0123723521791
-2.22429792249e-05
0.0105767883656
-5.47486216337e-05
0.0125305470619
0.000150241178341
6.48378063927e-05
-0.0125630290723
-0.0125205583113
6.33786174749e-05
0.01247917034
-0.000159391476752
3.48079099831e-06
-0.0106269508063
-0.000173856936399
-0.0106465532803
-4.08565805784e-06
0.0106537311051
-0.0125578501909
7.6799306766e-05
0.0124956898544
-1.02552479901e-05
-0.0106487354925
0.0125403196272
7.39082628735e-05
0.000127092103857
-0.0125684059534
-8.64139374595e-05
-0.0125511680352
0.0125311853727
0.000100708147259
-0.000142515880115
-0.0106528211411
0.010659539871
-0.000114885508284
2.14772226225e-05
-0.0106735085046
-2.62769645344e-05
0.0125151142566
-0.0125747007721
8.59906042169e-05
-0.0106566641605
-0.00010455988057
-0.0124639278397
0.000159060959915
0.0124382085812
0.000119867991509
0.0124431912377
7.62285278947e-05
-0.000190234257311
3.01585507012e-05
0.010636779762
-0.000162350739564
0.010655410608
1.35241079099e-06
0.0124118931928
8.97446637695e-05
0.0106614644097
1.73898246922e-05
-0.000127074791135
0.0124244408265
0.000131217728347
0.000142751915586
-0.0123888462221
0.000162485801542
0.0123832432752
-0.000165236275865
-0.000168501025368
4.37460926633e-05
-5.04111038106e-05
-0.000112674006768
-0.0106768236627
6.36210367591e-05
0.0106867056333
-0.00012279258964
0.000176583670314
0.0124235017897
3.99780603962e-05
-0.0124868084056
0.000123335871587
0.000123856976601
0.0124690156131
-9.65542366736e-05
0.0125056701386
0.000112790153719
-0.000129234457674
0.0106652282201
-9.87673289943e-05
-3.93797702608e-06
0.0107066403066
-7.92426192551e-06
0.0124931893517
0.000136258743732
0.0106800656454
0.0124580851204
0.000144047622134
9.69528927383e-05
-0.000173927138031
-0.0124841678952
0.0124901077212
0.000182396213335
-8.01892659485e-05
-0.0106933288315
0.0107029168309
-7.36757014007e-05
-2.09224008035e-05
3.55213939583e-06
0.0124602299511
0.00015783272004
-0.000239621324459
-0.012426743319
7.78154347451e-05
0.0124471125724
0.000243125921009
-0.000102299709569
0.0123832482774
0.000197686531745
-0.000135971230456
-0.000204945185638
-0.000119578019729
0.000112621168603
0.0106731520903
-0.00011518691467
-0.00010375093987
0.0106885000724
9.22122766108e-05
0.0124042968676
-0.000129138815888
-0.00025167151698
0.000205143480192
-0.000115736038407
0.0106837899801
0.000112990417963
-0.000271958255407
6.90015767062e-05
0.012492089947
0.000275800968566
-0.000118169014405
-0.0124521297083
0.00030582108978
0.0125195654216
-0.000324317332022
-0.000138005591429
-0.000103426516447
0.000137901490185
-0.00013856401722
-0.0106984868601
-4.7108917096e-05
0.000159188883056
0.0107046671718
-0.000282334070542
-0.000141225882988
0.000136395218294
0.000307382368988
0.0125485099047
-0.000105082623382
-0.0124649444736
0.000228115786493
3.4507341581e-05
0.0124866331284
-0.000198636896873
0.0124965442435
0.000203745539888
-6.32816514265e-05
0.0107027356436
-8.79852238223e-07
-8.14650503214e-05
0.010698033091
5.56692633836e-05
0.0125158635269
0.000226586758916
0.0106924745073
0.000254176412116
2.58517556132e-05
0.0125252360405
-0.012547217125
-0.000275348117559
0.000261472452375
0.0125890735891
-0.0106970304025
-2.47097915302e-06
0.0106898729686
8.34781750785e-06
-0.000100624441701
6.47370073803e-05
0.000246222440728
0.0125744397276
-0.000132662755007
-0.0125418396329
6.14483456129e-05
0.0125354255084
0.000135492821222
0.0125251626727
0.000112997829471
-0.0125452154773
-7.89504965499e-05
-1.41635182903e-05
0.010700012715
-7.44603351462e-05
0.0106943653654
-0.0106780943448
-2.7837528839e-05
0.0125167240165
-0.0125587729928
0.00011833596159
0.0107135027995
-2.41388718934e-05
-0.000151971549222
0.0125313182056
4.06106479206e-05
0.000153530798752
-0.0125100280565
0.000170826345148
0.0125166831944
-5.80616649242e-05
-6.33724525136e-06
-1.65035031579e-05
-0.0107251989455
-1.62657615321e-05
0.0107293889995
0.000169644171653
0.0125375803227
-1.70130163384e-05
0.0125497278399
0.000149408096583
3.1176505726e-05
-0.0125532193055
-0.00016059677201
-0.0125634722261
0.0125686068567
0.000157837571475
-1.3459818411e-05
-0.0107238223444
0.010729373674
-1.78766403489e-05
1.6060112118e-05
-0.0107209534143
-1.78545481026e-05
0.0125553211055
-0.0125659738346
0.00015160556022
-0.0107112488765
-0.000207090721628
-0.0125402531612
-3.4077642237e-05
0.0125552301461
0.000199702391457
0.0125211898851
0.000190401018238
1.36965061286e-05