/*--------------------------------*- C++ -*----------------------------------*\
| =========                 |                                                 |
| \\      /  F ield         | OpenFOAM: The Open Source CFD Toolbox           |
|  \\    /   O peration     | Version:  v1906                                 |
|   \\  /    A nd           | Web:      www.OpenFOAM.com                      |
|    \\/     M anipulation  |                                                 |
\*---------------------------------------------------------------------------*/
FoamFile
{
    version     2.0;
    format      ascii;
    class       volVectorField;
    location    "12.15";
    object      force.turbine;
}
// * * * * * * * * * * * * * * * * * * * * * * * * * * * * * * * * * * * * * //

dimensions      [1 -2 -2 0 0 0 0];


internalField   nonuniform List<vector> 
28582
(
(0 0 0)
(0 0 0)
(0 0 0)
(0 0 0)
(0 0 0)
(0 0 0)
(0 0 0)
(0 0 0)
(0 0 0)
(0 0 0)
(0 0 0)
(0 0 0)
(0 0 0)
(0 0 0)
(0 0 0)
(0 0 0)
(0 0 0)
(0 0 0)
(0 0 0)
(0 0 0)
(0 0 0)
(0 0 0)
(0 0 0)
(0 0 0)
(0 0 0)
(0 0 0)
(0 0 0)
(0 0 0)
(0 0 0)
(0 0 0)
(0 0 0)
(0 0 0)
(0 0 0)
(0 0 0)
(0 0 0)
(0 0 0)
(0 0 0)
(0 0 0)
(0 0 0)
(0 0 0)
(0 0 0)
(0 0 0)
(0 0 0)
(0 0 0)
(0 0 0)
(0 0 0)
(0 0 0)
(0 0 0)
(0 0 0)
(0 0 0)
(0 0 0)
(0 0 0)
(0 0 0)
(0 0 0)
(0 0 0)
(0 0 0)
(0 0 0)
(0 0 0)
(0 0 0)
(0 0 0)
(0 0 0)
(0 0 0)
(0 0 0)
(0 0 0)
(0 0 0)
(0 0 0)
(0 0 0)
(0 0 0)
(0 0 0)
(0 0 0)
(0 0 0)
(0 0 0)
(0 0 0)
(0 0 0)
(0 0 0)
(0 0 0)
(0 0 0)
(0 0 0)
(0 0 0)
(0 0 0)
(0 0 0)
(0 0 0)
(0 0 0)
(0 0 0)
(0 0 0)
(0 0 0)
(0 0 0)
(0 0 0)
(0 0 0)
(0 0 0)
(0 0 0)
(0 0 0)
(0 0 0)
(0 0 0)
(0 0 0)
(0 0 0)
(0 0 0)
(0 0 0)
(0 0 0)
(0 0 0)
(0 0 0)
(0 0 0)
(0 0 0)
(0 0 0)
(0 0 0)
(0 0 0)
(0 0 0)
(0 0 0)
(0 0 0)
(0 0 0)
(0 0 0)
(0 0 0)
(0 0 0)
(0 0 0)
(0 0 0)
(0 0 0)
(0 0 0)
(0 0 0)
(0 0 0)
(0 0 0)
(0 0 0)
(0 0 0)
(0 0 0)
(0 0 0)
(0 0 0)
(0 0 0)
(0 0 0)
(0 0 0)
(0 0 0)
(0 0 0)
(0 0 0)
(0 0 0)
(0 0 0)
(0 0 0)
(0 0 0)
(0 0 0)
(0 0 0)
(0 0 0)
(0 0 0)
(0 0 0)
(0 0 0)
(0 0 0)
(0 0 0)
(0 0 0)
(0 0 0)
(0 0 0)
(0 0 0)
(0 0 0)
(0 0 0)
(0 0 0)
(0 0 0)
(0 0 0)
(0 0 0)
(0 0 0)
(0 0 0)
(0 0 0)
(0 0 0)
(0 0 0)
(0 0 0)
(0 0 0)
(0 0 0)
(0 0 0)
(0 0 0)
(0 0 0)
(0 0 0)
(0 0 0)
(0 0 0)
(0 0 0)
(0 0 0)
(0 0 0)
(0 0 0)
(0 0 0)
(0 0 0)
(0 0 0)
(0 0 0)
(0 0 0)
(0 0 0)
(0 0 0)
(0 0 0)
(0 0 0)
(0 0 0)
(0 0 0)
(0 0 0)
(0 0 0)
(0 0 0)
(0 0 0)
(0 0 0)
(0 0 0)
(0 0 0)
(0 0 0)
(0 0 0)
(0 0 0)
(0 0 0)
(0 0 0)
(0 0 0)
(0 0 0)
(0 0 0)
(0 0 0)
(0 0 0)
(0 0 0)
(0 0 0)
(0 0 0)
(0 0 0)
(0 0 0)
(0 0 0)
(0 0 0)
(0 0 0)
(0 0 0)
(0 0 0)
(0 0 0)
(0 0 0)
(0 0 0)
(0 0 0)
(0 0 0)
(0 0 0)
(0 0 0)
(0 0 0)
(-0.00357470584803 9.16552416757e-05 0)
(0 0 0)
(0 0 0)
(0 0 0)
(0 0 0)
(-2.37718682305e-05 5.87936684376e-07 0)
(0 0 0)
(-2.37836814749e-06 7.26628045313e-08 0)
(0 0 0)
(0 0 0)
(0 0 0)
(0 0 0)
(0 0 0)
(0 0 0)
(0 0 0)
(0 0 0)
(0 0 0)
(0 0 0)
(0 0 0)
(0 0 0)
(-0.0158494271846 0.000505995753228 0)
(0 0 0)
(0 0 0)
(0 0 0)
(-0.0275388865215 0.00074741319118 0)
(0 0 0)
(0 0 0)
(-0.0326207796264 0.000195401291701 0.000395276918277)
(-0.524540393197 -0.0742268009943 0.0456037500231)
(-0.122666409012 -0.00660209305727 0.00503944559005)
(-2.34941388033 -0.298167082046 0.185412710385)
(-0.00553562011012 0.000106000003531 0)
(-0.0745930485066 0.00202447649365 0)
(0 0 0)
(0 0 0)
(0 0 0)
(0 0 0)
(0 0 0)
(-0.0158494049718 0.000505995044081 0)
(0 0 0)
(0 0 0)
(0 0 0)
(-0.027420607293 0.000744203059369 0)
(0 0 0)
(0 0 0)
(0 0 0)
(0 0 0)
(0 0 0)
(0 0 0)
(0 0 0)
(0 0 0)
(-1.46979156203e-05 3.28368358067e-07 0)
(0 0 0)
(-8.8429298547e-06 1.97561234661e-07 0)
(-0.00012412536788 3.09886751337e-06 0)
(-0.000556563154346 1.38949475648e-05 0)
(-7.4086096954e-05 1.84960578942e-06 0)
(-0.000333260053444 8.3200458598e-06 0)
(0 0 0)
(0 0 0)
(-0.000385398466108 7.91768447778e-06 0)
(0 0 0)
(0 0 0)
(0 0 0)
(0 0 0)
(0 0 0)
(0 0 0)
(-0.0156854290261 0.000402173451269 0)
(-0.000737622969286 1.7177199614e-05 0)
(-0.00347080848748 8.89913196372e-05 0)
(-2.62700443222e-05 6.27427456168e-07 0)
(-0.000121284317615 3.02793891497e-06 0)
(-3.37612227725e-06 1.03145727613e-07 0)
(-2.66802200395e-05 6.37223994907e-07 0)
(0 0 0)
(0 0 0)
(0 0 0)
(0 0 0)
(0 0 0)
(-0.000366170968125 7.52267184613e-06 0)
(0 0 0)
(0 0 0)
(0 0 0)
(0 0 0)
(0 0 0)
(0 0 0)
(0 0 0)
(0 0 0)
(0 0 0)
(0 0 0)
(0 0 0)
(0 0 0)
(0 0 0)
(0 0 0)
(0 0 0)
(0 0 0)
(0 0 0)
(0 0 0)
(0 0 0)
(0 0 0)
(-0.00503807763554 9.1789948492e-05 0)
(0 0 0)
(0 0 0)
(0 0 0)
(0 0 0)
(0 0 0)
(-0.00429483543212 8.22405732176e-05 0)
(0 0 0)
(0 0 0)
(0 0 0)
(0 0 0)
(0 0 0)
(0 0 0)
(0 0 0)
(0 0 0)
(0 0 0)
(0 0 0)
(0 0 0)
(0 0 0)
(0 0 0)
(0 0 0)
(0 0 0)
(0 0 0)
(0 0 0)
(0 0 0)
(0 0 0)
(0 0 0)
(0 0 0)
(0 0 0)
(-0.0558552976504 -0.00251432514858 0.00206252857044)
(-0.00810346767541 0.000187922043819 0)
(-0.0133748128957 0.000310166249282 0)
(-0.0100642529551 0.000234805942467 0)
(-0.0190080902825 0.000545757885316 0)
(0 0 0)
(0 0 0)
(0 0 0)
(0 0 0)
(0 0 0)
(0 0 0)
(0 0 0)
(0 0 0)
(0 0 0)
(0 0 0)
(-0.00488814353046 9.36016600097e-05 0)
(0 0 0)
(-0.00783814749649 0.00018286937126 0)
(0 0 0)
(0 0 0)
(-0.619701074684 -0.0920475235944 0.0558411280573)
(-0.556167216609 -0.0867041852251 0.0522539671579)
(-0.519593292328 -0.0596508141384 0.0376928676389)
(-0.040084474723 0.00108790401333 0)
(-2.4068205171 -0.425115663859 0.252070645402)
(-0.116080703937 -0.0101768085739 0.00680528222709)
(-0.150793666152 -0.00724865254173 0.00575319536137)
(-1.6606928517 -0.265770412197 0.159598541853)
(-10.7378273245 -1.92925373166 1.14163462293)
(-1.36179240112 -0.179238672179 0.110705646976)
(-0.755179017191 -0.0598496907836 0.0410170889334)
(-6.43729490054 -1.16952330665 0.690953576461)
(-0.416653024067 -0.0339102335813 0.0230502003636)
(-2.8112469078 -0.439941051661 0.265145528289)
(-0.0882228057258 -0.00311222263053 0.00281745702203)
(-0.00888138984187 0.000207208932599 0)
(-0.0189236194165 0.00051359239836 0)
(-0.0188971250133 0.000512873332744 0)
(-0.0244065469309 0.00070075769017 0)
(-0.0244050651639 0.000700715145863 0)
(-0.0453700758482 0.00123135672705 0)
(-0.30337456021 -0.0295243039699 0.0193504789821)
(-0.0995188983036 0.0028276623992 0)
(-0.206702720294 0.000675042678367 0.00247721293449)
(-0.0399707042362 0.00108481625005 0)
(-0.0516609835637 0.00148328362945 0)
(-0.100163806589 0.00197025249535 0.000370596106635)
(-0.549816100451 -0.0527300221481 0.0347339964747)
(0 0 0)
(0 0 0)
(0 0 0)
(0 0 0)
(0 0 0)
(0 0 0)
(0 0 0)
(0 0 0)
(0 0 0)
(0 0 0)
(0 0 0)
(0 0 0)
(0 0 0)
(0 0 0)
(0 0 0)
(0 0 0)
(0 0 0)
(0 0 0)
(0 0 0)
(0 0 0)
(0 0 0)
(0 0 0)
(0 0 0)
(-0.0048769621258 9.33875504953e-05 0)
(0 0 0)
(-0.00783737447735 0.000182851336192 0)
(0 0 0)
(0 0 0)
(0 0 0)
(-0.0355025086322 0.00101934353986 0)
(-0.0133275910244 0.000309071158769 0)
(-0.00806965280199 0.000187137865936 0)
(-0.0190056875174 0.000545688897428 0)
(0 0 0)
(-0.0100611159656 0.000234732754344 0)
(0 0 0)
(0 0 0)
(0 0 0)
(0 0 0)
(0 0 0)
(0 0 0)
(0 0 0)
(0 0 0)
(0 0 0)
(0 0 0)
(0 0 0)
(0 0 0)
(0 0 0)
(0 0 0)
(0 0 0)
(0 0 0)
(0 0 0)
(0 0 0)
(0 0 0)
(0 0 0)
(0 0 0)
(0 0 0)
(0 0 0)
(0 0 0)
(0 0 0)
(0 0 0)
(0 0 0)
(0 0 0)
(0 0 0)
(0 0 0)
(0 0 0)
(0 0 0)
(0 0 0)
(0 0 0)
(0 0 0)
(0 0 0)
(-0.0150656102222 0.000283852566217 0)
(0 0 0)
(0 0 0)
(0 0 0)
(0 0 0)
(0 0 0)
(0 0 0)
(0 0 0)
(-0.00336157728744 6.33357909506e-05 0)
(0 0 0)
(0 0 0)
(0 0 0)
(0 0 0)
(0 0 0)
(0 0 0)
(0 0 0)
(0 0 0)
(0 0 0)
(0 0 0)
(0 0 0)
(0 0 0)
(0 0 0)
(0 0 0)
(0 0 0)
(0 0 0)
(0 0 0)
(0 0 0)
(0 0 0)
(0 0 0)
(0 0 0)
(0 0 0)
(0 0 0)
(0 0 0)
(0 0 0)
(0 0 0)
(0 0 0)
(-0.322087291003 0.00838040235334 0)
(-0.00773358729602 0.000145709238966 0)
(0 0 0)
(0 0 0)
(0 0 0)
(0 0 0)
(0 0 0)
(0 0 0)
(-0.0707290567258 0.00186065780105 0)
(0 0 0)
(0 0 0)
(0 0 0)
(0 0 0)
(0 0 0)
(0 0 0)
(0 0 0)
(0 0 0)
(0 0 0)
(0 0 0)
(0 0 0)
(0 0 0)
(0 0 0)
(0 0 0)
(0 0 0)
(0 0 0)
(0 0 0)
(0 0 0)
(0 0 0)
(0 0 0)
(0 0 0)
(0 0 0)
(0 0 0)
(0 0 0)
(0 0 0)
(0 0 0)
(0 0 0)
(-1.50974256203 0.0514386729916 0)
(-0.0431356661238 0.0014583301938 0)
(0 0 0)
(0 0 0)
(0 0 0)
(0 0 0)
(0 0 0)
(0 0 0)
(-0.331152924371 0.0111555113094 0)
(-0.00655663283149 0.000244654686834 0)
(0 0 0)
(0 0 0)
(0 0 0)
(0 0 0)
(0 0 0)
(0 0 0)
(0 0 0)
(0 0 0)
(0 0 0)
(0 0 0)
(0 0 0)
(0 0 0)
(0 0 0)
(0 0 0)
(0 0 0)
(0 0 0)
(0 0 0)
(0 0 0)
(0 0 0)
(0 0 0)
(0 0 0)
(0 0 0)
(0 0 0)
(0 0 0)
(0 0 0)
(0 0 0)
(0 0 0)
(0 0 0)
(0 0 0)
(0 0 0)
(0 0 0)
(0 0 0)
(0 0 0)
(-2.5359100332 0.0785578627284 0)
(-0.0765564849171 0.00237158012483 0)
(0 0 0)
(0 0 0)
(0 0 0)
(0 0 0)
(0 0 0)
(0 0 0)
(-2.53582178815 0.0785551290578 0)
(-0.565810289309 0.0175277696984 0)
(-0.0158491343158 0.000505986403339 0)
(0 0 0)
(0 0 0)
(0 0 0)
(0 0 0)
(0 0 0)
(0 0 0)
(-0.0464447106908 0.00143877233779 0)
(-0.0765740269633 0.00237212354539 0)
(-0.0158492510438 0.000505990129901 0)
(0 0 0)
(0 0 0)
(0 0 0)
(0 0 0)
(0 0 0)
(0 0 0)
(0 0 0)
(0 0 0)
(0 0 0)
(0 0 0)
(0 0 0)
(0 0 0)
(0 0 0)
(0 0 0)
(0 0 0)
(0 0 0)
(0 0 0)
(0 0 0)
(0 0 0)
(0 0 0)
(0 0 0)
(0 0 0)
(0 0 0)
(0 0 0)
(0 0 0)
(0 0 0)
(-0.0669869915833 0.00171486199829 0)
(-0.00215897721674 5.53560452202e-05 0)
(0 0 0)
(0 0 0)
(0 0 0)
(0 0 0)
(0 0 0)
(0 0 0)
(-0.041878290095 0.00107208110918 0)
(-0.0670486374392 0.00171644012761 0)
(-0.0150633181665 0.000386222566467 0)
(-0.00037662137677 7.73736662464e-06 0)
(0 0 0)
(0 0 0)
(0 0 0)
(0 0 0)
(0 0 0)
(0 0 0)
(-0.00119601428298 2.78518659741e-05 0)
(-0.00215286632996 5.51993624529e-05 0)
(-0.000386723262929 7.94490130438e-06 0)
(0 0 0)
(0 0 0)
(0 0 0)
(0 0 0)
(0 0 0)
(0 0 0)
(0 0 0)
(0 0 0)
(0 0 0)
(0 0 0)
(0 0 0)
(0 0 0)
(0 0 0)
(0 0 0)
(0 0 0)
(0 0 0)
(0 0 0)
(0 0 0)
(0 0 0)
(0 0 0)
(0 0 0)
(0 0 0)
(0 0 0)
(0 0 0)
(0 0 0)
(0 0 0)
(-0.000184652164947 4.6759524412e-06 0)
(-0.000184538438883 4.67307255258e-06 0)
(-2.37468931198e-05 5.8731898855e-07 0)
(0 0 0)
(0 0 0)
(0 0 0)
(0 0 0)
(0 0 0)
(0 0 0)
(0 0 0)
(-2.41436763372e-05 5.97132412004e-07 0)
(-2.40080539818e-05 5.93778138071e-07 0)
(-2.37998946993e-06 7.27123384251e-08 0)
(0 0 0)
(0 0 0)
(0 0 0)
(0 0 0)
(0 0 0)
(0 0 0)
(0 0 0)
(0 0 0)
(0 0 0)
(0 0 0)
(0 0 0)
(0 0 0)
(0 0 0)
(0 0 0)
(0 0 0)
(0 0 0)
(0 0 0)
(0 0 0)
(0 0 0)
(0 0 0)
(0 0 0)
(0 0 0)
(0 0 0)
(0 0 0)
(0 0 0)
(0 0 0)
(0 0 0)
(0 0 0)
(0 0 0)
(0 0 0)
(0 0 0)
(0 0 0)
(0 0 0)
(0 0 0)
(0 0 0)
(0 0 0)
(-0.00336155938646 6.33354536766e-05 0)
(-0.0091376871606 0.000172164015368 0)
(-0.00203889471167 3.84150052748e-05 0)
(-0.0867984220502 0.00196472885555 0)
(-0.0177955134964 0.000335286928217 0)
(-0.0526459179886 0.0011916686013 0)
(-0.0107944777933 0.000203379762082 0)
(0 0 0)
(0 0 0)
(0 0 0)
(-0.00240826830146 4.53744075034e-05 0)
(0 0 0)
(0 0 0)
(0 0 0)
(0 0 0)
(0 0 0)
(0 0 0)
(-0.0177976953755 0.000335328037203 0)
(-0.00397121772609 7.482208327e-05 0)
(-0.00397121388281 7.48220108583e-05 0)
(0 0 0)
(0 0 0)
(0 0 0)
(0 0 0)
(0 0 0)
(0 0 0)
(0 0 0)
(0 0 0)
(-0.0707124867117 0.00186022189638 0)
(-0.195359610926 0.00508306967981 0)
(-0.0428938688158 0.00112840203622 0)
(-0.801554292117 0.0242402242529 0)
(-0.17685026193 0.00534761135096 0)
(-0.486163189399 0.0147023163002 0)
(-0.107259616941 0.00324332426084 0)
(0 0 0)
(-0.00469042207313 8.83726793978e-05 0)
(0 0 0)
(-0.0227929485819 0.000714370511464 0)
(0 0 0)
(-0.0121914459005 0.000372798289559 0)
(0 0 0)
(-0.0149423263443 0.000384085585927 0)
(-0.0149427259664 0.000384095858028 0)
(-0.00284547855961 5.36119267223e-05 0)
(-0.176881180065 0.00534854625583 0)
(-0.0375866601364 0.00117803107085 0)
(-0.0375891230387 0.00117810826248 0)
(-0.00739639091364 0.000226171850658 0)
(0 0 0)
(0 0 0)
(0 0 0)
(-0.00336071719118 6.33195857968e-05 0)
(0 0 0)
(0 0 0)
(0 0 0)
(-0.331088502997 0.0111533411538 0)
(-0.900163632053 0.0303237110067 0)
(-0.200813516787 0.00676478234895 0)
(-2.21073503687 0.0753990871233 0)
(-0.487407227718 0.0164964478558 0)
(-1.32537045073 0.0448575714242 0)
(-0.295665033522 0.0100068741924 0)
(0 0 0)
(-0.0261620242091 0.000884485467913 0)
(0 0 0)
(-0.0659575887977 0.00223235492298 0)
(0 0 0)
(-0.0400052921095 0.00135399144229 0)
(0 0 0)
(-0.0738782067683 0.00248872684028 0)
(-0.0738896628324 0.00248911275942 0)
(-0.0139953323638 0.00052134433861 0)
(-0.487567958585 0.0165018878415 0)
(-0.108784677393 0.00368185093709 0)
(-0.108791154835 0.00368207016812 0)
(-0.0242745388726 0.000821579250291 0)
(0 0 0)
(0 0 0)
(0 0 0)
(-0.0133104049581 0.000455140860816 0)
(0 0 0)
(0 0 0)
(0 0 0)
(-7.08314788146 0.224222846578 0)
(-4.20665801631 0.130964127224 0)
(-4.05687244698 0.109563037461 0)
(-1.92841562313 0.0520802849777 0)
(-0.565793541303 0.0175272508758 0)
(-1.53806017345 0.0476462959616 0)
(-0.343168432279 0.0106307314702 0)
(-2.46962282558 0.0666965455999 0)
(-0.260878676052 0.00704549145445 0)
(-1.16987838828 0.0315946412795 0)
(-0.123129230986 0.00332532331823 0)
(0 0 0)
(-0.0464388030532 0.00143858932997 0)
(0 0 0)
(-0.0941766628736 0.00255598134217 0)
(0 0 0)
(-0.0445020717622 0.00120779884996 0)
(0 0 0)
(0 0 0)
(0 0 0)
(0 0 0)
(0 0 0)
(0 0 0)
(0 0 0)
(0 0 0)
(0 0 0)
(0 0 0)
(0 0 0)
(0 0 0)
(0 0 0)
(0 0 0)
(0 0 0)
(0 0 0)
(0 0 0)
(0 0 0)
(0 0 0)
(0 0 0)
(0 0 0)
(0 0 0)
(0 0 0)
(0 0 0)
(0 0 0)
(0 0 0)
(0 0 0)
(0 0 0)
(0 0 0)
(0 0 0)
(0 0 0)
(0 0 0)
(0 0 0)
(0 0 0)
(0 0 0)
(0 0 0)
(0 0 0)
(0 0 0)
(0 0 0)
(0 0 0)
(0 0 0)
(0 0 0)
(0 0 0)
(-0.741473595938 -0.0675062744185 0.0456035826638)
(-0.570266402117 0.0168506872769 0.000395273891704)
(-2.81745483182 -0.285416788093 0.185356300766)
(-2.55344233897 0.0590928952485 0.0050102137296)
(-0.124838223003 0.00337147767947 0)
(-0.262861343219 0.00709903689862 0)
(-1.5380387176 0.0476456312986 0)
(-0.565812542601 0.0175278395013 0)
(-0.343181155537 0.0106311256136 0)
(-2.49510736199 0.067384800716 0)
(-1.16989339337 0.0315950465188 0)
(-0.261858062238 0.00707194151587 0)
(-0.122276502399 0.00330229386997 0)
(-0.126248143707 0.00391093698641 0)
(-0.126248639102 0.00391095233285 0)
(-0.0281699118298 0.000872652435467 0)
(-0.709292677429 0.0191557070634 0)
(-0.073434540675 0.00199303426251 0)
(-0.0728200069562 0.00197635564307 0)
(-0.00539059924061 0.00010322304045 0)
(0 0 0)
(0 0 0)
(0 0 0)
(-0.0270022593584 0.000732848977766 0)
(0 0 0)
(0 0 0)
(0 0 0)
(0 0 0)
(0 0 0)
(0 0 0)
(0 0 0)
(0 0 0)
(0 0 0)
(0 0 0)
(0 0 0)
(0 0 0)
(0 0 0)
(0 0 0)
(0 0 0)
(0 0 0)
(0 0 0)
(0 0 0)
(0 0 0)
(0 0 0)
(0 0 0)
(0 0 0)
(0 0 0)
(0 0 0)
(0 0 0)
(0 0 0)
(0 0 0)
(0 0 0)
(0 0 0)
(0 0 0)
(0 0 0)
(0 0 0)
(0 0 0)
(0 0 0)
(0 0 0)
(0 0 0)
(0 0 0)
(0 0 0)
(0 0 0)
(0 0 0)
(0 0 0)
(0 0 0)
(0 0 0)
(0 0 0)
(0 0 0)
(-0.0765742431361 0.00237213024203 0)
(0 0 0)
(0 0 0)
(-0.0451442038969 0.00122522649823 0)
(-0.0950085042826 0.00257855775394 0)
(0 0 0)
(0 0 0)
(-0.0464442531318 0.00143875816345 0)
(0 0 0)
(0 0 0)
(-0.0946048606342 0.00256760275084 0)
(-0.0441377091841 0.00119790994624 0)
(0 0 0)
(0 0 0)
(0 0 0)
(0 0 0)
(0 0 0)
(-0.026722448447 0.000725254830266 0)
(0 0 0)
(0 0 0)
(0 0 0)
(0 0 0)
(0 0 0)
(0 0 0)
(0 0 0)
(0 0 0)
(0 0 0)
(0 0 0)
(0 0 0)
(0 0 0)
(0 0 0)
(0 0 0)
(0 0 0)
(0 0 0)
(0 0 0)
(0 0 0)
(0 0 0)
(0 0 0)
(0 0 0)
(0 0 0)
(0 0 0)
(0 0 0)
(0 0 0)
(0 0 0)
(0 0 0)
(0 0 0)
(0 0 0)
(0 0 0)
(0 0 0)
(0 0 0)
(0 0 0)
(0 0 0)
(0 0 0)
(0 0 0)
(0 0 0)
(0 0 0)
(0 0 0)
(0 0 0)
(0 0 0)
(0 0 0)
(0 0 0)
(0 0 0)
(0 0 0)
(0 0 0)
(0 0 0)
(0 0 0)
(0 0 0)
(0 0 0)
(0 0 0)
(0 0 0)
(0 0 0)
(0 0 0)
(0 0 0)
(0 0 0)
(0 0 0)
(0 0 0)
(0 0 0)
(0 0 0)
(0 0 0)
(0 0 0)
(0 0 0)
(0 0 0)
(0 0 0)
(0 0 0)
(0 0 0)
(0 0 0)
(0 0 0)
(0 0 0)
(0 0 0)
(0 0 0)
(0 0 0)
(0 0 0)
(0 0 0)
(0 0 0)
(0 0 0)
(0 0 0)
(0 0 0)
(0 0 0)
(0 0 0)
(0 0 0)
(0 0 0)
(0 0 0)
(0 0 0)
(0 0 0)
(0 0 0)
(0 0 0)
(0 0 0)
(0 0 0)
(0 0 0)
(0 0 0)
(0 0 0)
(0 0 0)
(0 0 0)
(0 0 0)
(0 0 0)
(0 0 0)
(0 0 0)
(0 0 0)
(0 0 0)
(0 0 0)
(0 0 0)
(0 0 0)
(0 0 0)
(0 0 0)
(0 0 0)
(0 0 0)
(0 0 0)
(0 0 0)
(0 0 0)
(0 0 0)
(0 0 0)
(0 0 0)
(0 0 0)
(0 0 0)
(0 0 0)
(0 0 0)
(0 0 0)
(0 0 0)
(0 0 0)
(0 0 0)
(0 0 0)
(0 0 0)
(0 0 0)
(0 0 0)
(0 0 0)
(0 0 0)
(0 0 0)
(0 0 0)
(0 0 0)
(0 0 0)
(0 0 0)
(0 0 0)
(0 0 0)
(0 0 0)
(0 0 0)
(0 0 0)
(0 0 0)
(0 0 0)
(0 0 0)
(0 0 0)
(0 0 0)
(0 0 0)
(0 0 0)
(0 0 0)
(0 0 0)
(0 0 0)
(0 0 0)
(0 0 0)
(0 0 0)
(0 0 0)
(0 0 0)
(0 0 0)
(0 0 0)
(0 0 0)
(0 0 0)
(0 0 0)
(0 0 0)
(0 0 0)
(0 0 0)
(0 0 0)
(0 0 0)
(0 0 0)
(0 0 0)
(0 0 0)
(0 0 0)
(0 0 0)
(0 0 0)
(0 0 0)
(0 0 0)
(0 0 0)
(0 0 0)
(-0.00157764549815 3.93732289528e-05 0)
(-0.00284174929203 7.0921411453e-05 0)
(-0.000937908824154 2.34154809394e-05 0)
(-0.00153865153679 3.8400058383e-05 0)
(-0.181149654487 0.0046374176708 0)
(-0.108726934328 0.00278340142559 0)
(-0.00278708111163 6.95570600916e-05 0)
(-0.00150236764807 3.74945229762e-05 0)
(-0.00150986380646 3.76816042698e-05 0)
(-0.000888239755633 2.21754615502e-05 0)
(-0.0152731108851 0.00039160163908 0)
(-0.0406524637522 0.00104070004605 0)
(-0.00928574620463 0.000238085970904 0)
(-0.000535862562279 1.33781443249e-05 0)
(-0.000120777481687 3.01528543875e-06 0)
(-0.000329445762009 8.22481968634e-06 0)
(-7.37448881763e-05 1.84108729868e-06 0)
(0 0 0)
(-0.00122679275201 2.8568611423e-05 0)
(0 0 0)
(-1.60598629442e-05 3.58795829424e-07 0)
(0 0 0)
(-9.40551370484e-06 2.1013000563e-07 0)
(0 0 0)
(0 0 0)
(0 0 0)
(0 0 0)
(0 0 0)
(0 0 0)
(0 0 0)
(0 0 0)
(0 0 0)
(0 0 0)
(0 0 0)
(0 0 0)
(0 0 0)
(0 0 0)
(0 0 0)
(0 0 0)
(0 0 0)
(0 0 0)
(0 0 0)
(0 0 0)
(0 0 0)
(0 0 0)
(0 0 0)
(0 0 0)
(0 0 0)
(0 0 0)
(0 0 0)
(0 0 0)
(0 0 0)
(0 0 0)
(0 0 0)
(0 0 0)
(0 0 0)
(0 0 0)
(0 0 0)
(0 0 0)
(0 0 0)
(0 0 0)
(0 0 0)
(0 0 0)
(0 0 0)
(0 0 0)
(0 0 0)
(-0.0674668308885 0.00172714584878 0)
(-0.00928922054031 0.000238175052661 0)
(-0.0151877234527 0.000389412310479 0)
(-0.000368967929375 9.21151533607e-06 0)
(-0.000641585577811 1.60175855918e-05 0)
(-8.62886707646e-05 2.15425068358e-06 0)
(-0.000151875544738 3.79166805065e-06 0)
(-0.0407144936398 0.00104228800655 0)
(-0.0154215383131 0.000395407309353 0)
(-0.00942005923168 0.000241529748792 0)
(-0.000621199364632 1.55086310178e-05 0)
(-0.000358185498787 8.94232520647e-06 0)
(-0.00012899044233 3.22032714265e-06 0)
(-7.9434369711e-05 1.98312876689e-06 0)
(-0.00343918819365 8.81805772164e-05 0)
(-0.00350863222893 8.99611180794e-05 0)
(-0.00074674607873 1.73896516098e-05 0)
(-0.00012244020649 3.05679640434e-06 0)
(-2.63077911431e-05 6.2832899221e-07 0)
(-2.71436966452e-05 6.48293559318e-07 0)
(-3.42069040464e-06 1.04507352445e-07 0)
(0 0 0)
(0 0 0)
(0 0 0)
(0 0 0)
(0 0 0)
(0 0 0)
(0 0 0)
(0 0 0)
(0 0 0)
(0 0 0)
(0 0 0)
(0 0 0)
(0 0 0)
(0 0 0)
(0 0 0)
(0 0 0)
(0 0 0)
(0 0 0)
(0 0 0)
(0 0 0)
(0 0 0)
(0 0 0)
(0 0 0)
(0 0 0)
(0 0 0)
(0 0 0)
(0 0 0)
(0 0 0)
(0 0 0)
(0 0 0)
(0 0 0)
(0 0 0)
(0 0 0)
(0 0 0)
(0 0 0)
(0 0 0)
(0 0 0)
(0 0 0)
(0 0 0)
(0 0 0)
(0 0 0)
(0 0 0)
(0 0 0)
(0 0 0)
(0 0 0)
(0 0 0)
(0 0 0)
(0 0 0)
(0 0 0)
(-0.00210560476048 5.39875786707e-05 0)
(0 0 0)
(0 0 0)
(-1.01401134419e-05 2.2654180957e-07 0)
(-1.79816126499e-05 4.01729930543e-07 0)
(0 0 0)
(0 0 0)
(-0.00124800814686 2.90626593138e-05 0)
(0 0 0)
(0 0 0)
(-1.52723267175e-05 3.41201363352e-07 0)
(-9.82849441647e-06 2.19579881746e-07 0)
(0 0 0)
(0 0 0)
(0 0 0)
(0 0 0)
(0 0 0)
(0 0 0)
(0 0 0)
(0 0 0)
(0 0 0)
(0 0 0)
(0 0 0)
(0 0 0)
(0 0 0)
(0 0 0)
(0 0 0)
(0 0 0)
(0 0 0)
(0 0 0)
(0 0 0)
(0 0 0)
(0 0 0)
(0 0 0)
(0 0 0)
(0 0 0)
(0 0 0)
(0 0 0)
(0 0 0)
(0 0 0)
(0 0 0)
(0 0 0)
(0 0 0)
(0 0 0)
(0 0 0)
(0 0 0)
(0 0 0)
(0 0 0)
(0 0 0)
(0 0 0)
(0 0 0)
(0 0 0)
(0 0 0)
(0 0 0)
(0 0 0)
(0 0 0)
(0 0 0)
(0 0 0)
(0 0 0)
(0 0 0)
(0 0 0)
(0 0 0)
(0 0 0)
(0 0 0)
(0 0 0)
(0 0 0)
(0 0 0)
(0 0 0)
(0 0 0)
(0 0 0)
(0 0 0)
(0 0 0)
(0 0 0)
(0 0 0)
(0 0 0)
(0 0 0)
(0 0 0)
(0 0 0)
(0 0 0)
(0 0 0)
(0 0 0)
(0 0 0)
(0 0 0)
(0 0 0)
(0 0 0)
(0 0 0)
(0 0 0)
(0 0 0)
(0 0 0)
(0 0 0)
(0 0 0)
(0 0 0)
(0 0 0)
(0 0 0)
(0 0 0)
(0 0 0)
(0 0 0)
(0 0 0)
(0 0 0)
(0 0 0)
(0 0 0)
(0 0 0)
(0 0 0)
(0 0 0)
(0 0 0)
(0 0 0)
(0 0 0)
(0 0 0)
(0 0 0)
(0 0 0)
(0 0 0)
(0 0 0)
(0 0 0)
(0 0 0)
(0 0 0)
(0 0 0)
(0 0 0)
(0 0 0)
(0 0 0)
(0 0 0)
(0 0 0)
(0 0 0)
(0 0 0)
(0 0 0)
(0 0 0)
(0 0 0)
(0 0 0)
(0 0 0)
(0 0 0)
(0 0 0)
(0 0 0)
(0 0 0)
(0 0 0)
(0 0 0)
(0 0 0)
(0 0 0)
(0 0 0)
(0 0 0)
(0 0 0)
(0 0 0)
(0 0 0)
(0 0 0)
(0 0 0)
(0 0 0)
(0 0 0)
(0 0 0)
(0 0 0)
(0 0 0)
(0 0 0)
(0 0 0)
(0 0 0)
(0 0 0)
(0 0 0)
(0 0 0)
(0 0 0)
(0 0 0)
(0 0 0)
(0 0 0)
(0 0 0)
(0 0 0)
(0 0 0)
(0 0 0)
(0 0 0)
(0 0 0)
(0 0 0)
(0 0 0)
(0 0 0)
(0 0 0)
(0 0 0)
(0 0 0)
(0 0 0)
(0 0 0)
(0 0 0)
(0 0 0)
(0 0 0)
(0 0 0)
(0 0 0)
(0 0 0)
(0 0 0)
(0 0 0)
(0 0 0)
(0 0 0)
(0 0 0)
(0 0 0)
(0 0 0)
(0 0 0)
(0 0 0)
(0 0 0)
(0 0 0)
(0 0 0)
(0 0 0)
(0 0 0)
(0 0 0)
(0 0 0)
(0 0 0)
(0 0 0)
(-6.99191509659 0.199124701688 0)
(-5.43185838312 0.154337135655 0)
(-5.87588725975 0.158688759474 0)
(-3.59469813622 0.0970812002858 0)
(-4.79414445554 0.13621756515 0)
(-5.21111023271 0.140735276522 0)
(-7.93038854629 0.226088926149 0)
(-5.43296258707 0.154368509756 0)
(-2.56645263611 0.0729214424814 0)
(-2.80098270815 0.0756455070726 0)
(-2.80423423557 0.0757333203388 0)
(-3.73418265784 0.106100530385 0)
(-3.73408774461 0.106097833585 0)
(-4.06772187425 0.109856045492 0)
(-1.55669686044 0.0442309275349 0)
(-3.29484833392 0.0936175832302 0)
(-1.32350571702 0.0357436198324 0)
(-2.18420020881 0.0589882014845 0)
(-2.90805980937 0.0826276367381 0)
(-1.16942000988 0.0315822619577 0)
(-1.7638399113 0.050116549524 0)
(-0.735398294254 0.0208951077689 0)
(-0.347439395955 0.00987190707182 0)
(-0.62541772046 0.0168905150534 0)
(-0.230271575873 0.00621889241607 0)
(-0.306583517395 0.00871105588115 0)
(-0.552369920511 0.0149177296265 0)
(-0.833329675505 0.0236776635366 0)
(-1.21241215764 0.0344486557724 0)
(-1.55667271898 0.044230241596 0)
(-1.70051509296 0.0459254268571 0)
(-0.62574027173 0.0168992261227 0)
(-2.26502576431 0.0643569040267 0)
(-0.833241208446 0.0236751498937 0)
(-0.910319110441 0.0245847825146 0)
(-0.572723487145 0.0162729762623 0)
(-0.16408771601 0.00466227694077 0)
(-0.179292894611 0.00484212269069 0)
(-0.29539573165 0.00797768577532 0)
(-0.238763705016 0.00678406978449 0)
(-0.393604914886 0.0111836227786 0)
(-0.430015777462 0.011613338933 0)
(-0.0355105416147 0.00101957418184 0)
(-0.12781908146 0.00363176458649 0)
(-0.0304695694476 0.000826952757036 0)
(-0.0831290934331 0.00225614717408 0)
(-0.112793020112 0.00320482428263 0)
(-0.0269023540651 0.00073013751977 0)
(-0.0402403364334 0.00115537545276 0)
(-0.00888038214829 0.000207185422415 0)
(0 0 0)
(-0.00786523770205 0.000182397413465 0)
(0 0 0)
(0 0 0)
(-0.00537766788045 0.000102975421539 0)
(-0.0100628475701 0.000234773153868 0)
(-0.0276569017323 0.000794081466339 0)
(-0.060371053417 0.0017153421175 0)
(-0.0647895852833 0.00175840772117 0)
(-0.0130797321047 0.000303323230026 0)
(-0.0878457829075 0.00249599042484 0)
(-0.019007640489 0.000545744970903 0)
(-0.0209814797238 0.000569443310782 0)
(-0.00503786317895 9.17860412558e-05 0)
(0 0 0)
(0 0 0)
(0 0 0)
(0 0 0)
(0 0 0)
(-0.00419781073048 8.03826750035e-05 0)
(0 0 0)
(0 0 0)
(0 0 0)
(0 0 0)
(0 0 0)
(0 0 0)
(0 0 0)
(0 0 0)
(0 0 0)
(0 0 0)
(0 0 0)
(0 0 0)
(0 0 0)
(0 0 0)
(0 0 0)
(0 0 0)
(0 0 0)
(0 0 0)
(0 0 0)
(0 0 0)
(0 0 0)
(0 0 0)
(0 0 0)
(0 0 0)
(0 0 0)
(0 0 0)
(0 0 0)
(0 0 0)
(0 0 0)
(0 0 0)
(0 0 0)
(0 0 0)
(0 0 0)
(0 0 0)
(0 0 0)
(0 0 0)
(0 0 0)
(0 0 0)
(0 0 0)
(0 0 0)
(0 0 0)
(0 0 0)
(0 0 0)
(0 0 0)
(0 0 0)
(0 0 0)
(0 0 0)
(0 0 0)
(0 0 0)
(0 0 0)
(0 0 0)
(0 0 0)
(0 0 0)
(0 0 0)
(0 0 0)
(0 0 0)
(0 0 0)
(0 0 0)
(0 0 0)
(0 0 0)
(0 0 0)
(0 0 0)
(0 0 0)
(0 0 0)
(0 0 0)
(0 0 0)
(0 0 0)
(0 0 0)
(0 0 0)
(0 0 0)
(0 0 0)
(0 0 0)
(0 0 0)
(0 0 0)
(0 0 0)
(0 0 0)
(0 0 0)
(0 0 0)
(0 0 0)
(0 0 0)
(0 0 0)
(0 0 0)
(0 0 0)
(0 0 0)
(0 0 0)
(0 0 0)
(0 0 0)
(0 0 0)
(0 0 0)
(0 0 0)
(0 0 0)
(0 0 0)
(0 0 0)
(0 0 0)
(0 0 0)
(0 0 0)
(0 0 0)
(0 0 0)
(0 0 0)
(0 0 0)
(0 0 0)
(0 0 0)
(0 0 0)
(0 0 0)
(0 0 0)
(0 0 0)
(0 0 0)
(0 0 0)
(0 0 0)
(0 0 0)
(0 0 0)
(0 0 0)
(0 0 0)
(0 0 0)
(0 0 0)
(0 0 0)
(0 0 0)
(0 0 0)
(0 0 0)
(0 0 0)
(0 0 0)
(0 0 0)
(0 0 0)
(0 0 0)
(0 0 0)
(0 0 0)
(0 0 0)
(0 0 0)
(0 0 0)
(0 0 0)
(0 0 0)
(0 0 0)
(0 0 0)
(0 0 0)
(0 0 0)
(0 0 0)
(0 0 0)
(0 0 0)
(0 0 0)
(0 0 0)
(0 0 0)
(0 0 0)
(0 0 0)
(0 0 0)
(0 0 0)
(0 0 0)
(0 0 0)
(0 0 0)
(0 0 0)
(0 0 0)
(0 0 0)
(0 0 0)
(0 0 0)
(0 0 0)
(0 0 0)
(0 0 0)
(0 0 0)
(0 0 0)
(0 0 0)
(0 0 0)
(0 0 0)
(0 0 0)
(0 0 0)
(0 0 0)
(0 0 0)
(0 0 0)
(0 0 0)
(0 0 0)
(-2.60279448437 -0.239020238633 0.159607753203)
(-11.3505156577 -1.91185661532 1.14164044461)
(-2.70571783492 -0.142730270766 0.110596327807)
(-1.00503153235 -0.053048743097 0.0409898766765)
(-8.1973027407 -1.11953014267 0.69096098637)
(-1.13372227734 -0.0144317641584 0.0229926588645)
(-3.13927915531 -0.430643095476 0.265157019921)
(-2.04887577561 -0.0514446040864 0.0558435113012)
(-3.75245135851 0.00412425137422 0.0522481612868)
(-2.55531531145 -0.00448198324028 0.0375953932789)
(-1.3389309331 0.0361602051575 0)
(-5.0767804171 -0.349243531988 0.25206568865)
(-1.82858395708 0.0384666078179 0.00680480968659)
(-1.23908781934 0.0221825897405 0.00572641299979)
(-0.748295263174 -0.0168822186445 0.0193502706906)
(-0.164073861725 0.00466188329454 0)
(-0.324582555677 0.00386298360959 0.00247499845758)
(-0.181348571955 0.00489763990419 0)
(-0.238716297548 0.0067827227809 0)
(-0.440112324477 0.0111405475903 0.000369506586595)
(-0.704698237222 -0.0483297038405 0.0347341984976)
(-0.763215921479 0.0160670328229 0.00281722666396)
(-0.347281461091 0.00986741961785 0)
(-0.631992675156 0.0170680833692 0)
(-0.232458609189 0.00627795713064 0)
(-0.833215295631 0.0236744136245 0)
(-0.306503461745 0.00870878123429 0)
(-0.558811506923 0.0150916960951 0)
(-1.55646797951 0.0442244242676 0)
(-3.3158624491 0.0901038329271 0.00206196133142)
(-2.19377432518 0.059246767482 0)
(-1.33442067241 0.0360383975663 0)
(-2.90786337649 0.0826220554274 0)
(-1.76398366677 0.0501206340943 0)
(-1.17384465208 0.0317017572698 0)
(-1.21202677393 0.0344377057411 0)
(-1.55639855416 0.0442224516628 0)
(-1.70489311658 0.0460436631518 0)
(-0.625188965495 0.0168843371197 0)
(-2.26452933059 0.064342798696 0)
(-0.83298350217 0.0236678276025 0)
(-0.911647765866 0.0246206652115 0)
(-0.735094700671 0.020886481667 0)
(-0.347231756706 0.0098660073512 0)
(-0.629577759794 0.0170028642957 0)
(-0.230249900827 0.00621830704302 0)
(-0.833107987905 0.0236713646557 0)
(-0.306380579329 0.00870528973675 0)
(-0.553623754561 0.0149515916393 0)
(-0.572430881284 0.016264662358 0)
(-0.1639833771 0.00465931232585 0)
(-0.294282696723 0.00794762629253 0)
(-0.17855154229 0.00482210115607 0)
(-0.393424836255 0.0111785061466 0)
(-0.238590979642 0.00677916208302 0)
(-0.429480929072 0.0115988944034 0)
(-0.270435244609 0.00768396340428 0)
(-0.944019066039 0.0268227167168 0)
(-0.379166641343 0.010240067804 0)
(-0.378872148904 0.0102321145133 0)
(-0.505302680636 0.0143573272475 0)
(-0.505232906108 0.0143553447214 0)
(-0.202594211191 0.00547141608225 0)
(-0.127749422122 0.00362978533336 0)
(-0.0995068465938 0.00282731997011 0)
(-0.179039206626 0.00483527139659 0)
(-0.0392227749348 0.00106451723667 0)
(-0.238693003904 0.00678206093111 0)
(-0.0516459358136 0.00148285158035 0)
(-0.0941094076176 0.00255415601544 0)
(-0.127732128061 0.00362929395165 0)
(-0.0994642929141 0.00282611087875 0)
(-0.178188374015 0.00481229315254 0)
(-0.0389323402244 0.00105663475625 0)
(-0.238626756116 0.00678017861146 0)
(-0.0516319547441 0.00148245015765 0)
(-0.093715584619 0.00254346754756 0)
(-0.0603385787301 0.0017144194038 0)
(-0.00887587550697 0.000207080279374 0)
(-0.018479583184 0.000501541129067 0)
(-0.0184055992568 0.000499533184297 0)
(-0.0243930698598 0.000700370738207 0)
(-0.0243910436353 0.000700312561506 0)
(-0.0442977132322 0.00120225250149 0)
(0 0 0)
(-0.0355021865239 0.00101933429153 0)
(-0.00794373834585 0.000184217868857 0)
(-0.0130818799635 0.000303373039569 0)
(-0.0100613587386 0.000234738418404 0)
(-0.0190011690055 0.000545559162486 0)
(0 0 0)
(0 0 0)
(0 0 0)
(0 0 0)
(0 0 0)
(0 0 0)
(0 0 0)
(0 0 0)
(0 0 0)
(0 0 0)
(-0.00477656550305 9.146508433e-05 0)
(0 0 0)
(-0.00783360227336 0.000182763328079 0)
(0 0 0)
(0 0 0)
(0 0 0)
(0 0 0)
(0 0 0)
(0 0 0)
(0 0 0)
(0 0 0)
(0 0 0)
(0 0 0)
(0 0 0)
(0 0 0)
(0 0 0)
(0 0 0)
(0 0 0)
(0 0 0)
(0 0 0)
(0 0 0)
(0 0 0)
(0 0 0)
(0 0 0)
(0 0 0)
(0 0 0)
(0 0 0)
(0 0 0)
(0 0 0)
(0 0 0)
(0 0 0)
(0 0 0)
(0 0 0)
(0 0 0)
(0 0 0)
(0 0 0)
(0 0 0)
(0 0 0)
(0 0 0)
(0 0 0)
(0 0 0)
(0 0 0)
(0 0 0)
(0 0 0)
(0 0 0)
(0 0 0)
(0 0 0)
(0 0 0)
(0 0 0)
(0 0 0)
(0 0 0)
(0 0 0)
(0 0 0)
(0 0 0)
(0 0 0)
(0 0 0)
(0 0 0)
(0 0 0)
(0 0 0)
(0 0 0)
(0 0 0)
(0 0 0)
(0 0 0)
(0 0 0)
(0 0 0)
(0 0 0)
(0 0 0)
(0 0 0)
(0 0 0)
(0 0 0)
(0 0 0)
(0 0 0)
(0 0 0)
(0 0 0)
(0 0 0)
(0 0 0)
(0 0 0)
(0 0 0)
(0 0 0)
(0 0 0)
(0 0 0)
(0 0 0)
(0 0 0)
(0 0 0)
(0 0 0)
(0 0 0)
(0 0 0)
(0 0 0)
(0 0 0)
(0 0 0)
(0 0 0)
(0 0 0)
(0 0 0)
(0 0 0)
(0 0 0)
(0 0 0)
(0 0 0)
(0 0 0)
(0 0 0)
(0 0 0)
(0 0 0)
(0 0 0)
(0 0 0)
(0 0 0)
(0 0 0)
(0 0 0)
(0 0 0)
(0 0 0)
(0 0 0)
(0 0 0)
(0 0 0)
(0 0 0)
(0 0 0)
(0 0 0)
(0 0 0)
(0 0 0)
(0 0 0)
(0 0 0)
(0 0 0)
(0 0 0)
(0 0 0)
(0 0 0)
(0 0 0)
(0 0 0)
(0 0 0)
(0 0 0)
(0 0 0)
(0 0 0)
(0 0 0)
(0 0 0)
(0 0 0)
(0 0 0)
(0 0 0)
(0 0 0)
(0 0 0)
(0 0 0)
(0 0 0)
(0 0 0)
(0 0 0)
(0 0 0)
(0 0 0)
(0 0 0)
(0 0 0)
(0 0 0)
(0 0 0)
(0 0 0)
(0 0 0)
(0 0 0)
(0 0 0)
(0 0 0)
(0 0 0)
(0 0 0)
(0 0 0)
(0 0 0)
(0 0 0)
(0 0 0)
(0 0 0)
(0 0 0)
(0 0 0)
(0 0 0)
(0 0 0)
(0 0 0)
(0 0 0)
(0 0 0)
(0 0 0)
(0 0 0)
(0 0 0)
(0 0 0)
(0 0 0)
(0 0 0)
(0 0 0)
(0 0 0)
(0 0 0)
(0 0 0)
(0 0 0)
(0 0 0)
(0 0 0)
(0 0 0)
(0 0 0)
(0 0 0)
(-0.0276438278289 0.000793706090078 0)
(-0.0603536182274 0.00171484672586 0)
(-0.0655772940552 0.00177978636066 0)
(-0.0132798815493 0.000307964760567 0)
(-0.0878065965827 0.00249487701121 0)
(-0.0212569217742 0.000576918886153 0)
(-0.0190013817625 0.000545565271139 0)
(-0.0354921773899 0.00101904691054 0)
(-0.127736545674 0.00362941947071 0)
(-0.0840320671747 0.00228065413754 0)
(-0.0307803273744 0.000835386815312 0)
(-0.11273853122 0.00320327607225 0)
(-0.0402128959184 0.00115458758417 0)
(-0.0272364602567 0.000739205256574 0)
(-0.00503601137865 9.17523028606e-05 0)
(0 0 0)
(0 0 0)
(0 0 0)
(0 0 0)
(-0.00426544444648 8.16777736541e-05 0)
(0 0 0)
(-0.00887690414211 0.000207104278139 0)
(0 0 0)
(-0.00797690271093 0.00018498696124 0)
(0 0 0)
(-0.0100575711562 0.000234650051502 0)
(0 0 0)
(-0.00546400221023 0.000104628612885 0)
(-0.035476180426 0.00101858760773 0)
(-0.127719950571 0.00362894794872 0)
(-0.083123955105 0.00225600771839 0)
(-0.0306395892025 0.000831567141408 0)
(-0.112698040391 0.00320212559333 0)