/*--------------------------------*- C++ -*----------------------------------*\
| =========                 |                                                 |
| \\      /  F ield         | OpenFOAM: The Open Source CFD Toolbox           |
|  \\    /   O peration     | Version:  v1906                                 |
|   \\  /    A nd           | Web:      www.OpenFOAM.com                      |
|    \\/     M anipulation  |                                                 |
\*---------------------------------------------------------------------------*/
FoamFile
{
    version     2.0;
    format      ascii;
    class       volVectorField;
    location    "12.15";
    object      U;
}
// * * * * * * * * * * * * * * * * * * * * * * * * * * * * * * * * * * * * * //

dimensions      [0 1 -1 0 0 0 0];


internalField   nonuniform List<vector> 
28582
(
(0.815882485359 0.00450272218776 -0.000583778457049)
(0.817099461354 0.00393755207042 -0.000613035787736)
(0.81655705607 0.00479838863658 -3.35773080466e-05)
(0.817577786327 0.00404597185685 8.74255443572e-05)
(0.816674795919 0.00495378925939 -0.000908190750437)
(0.818167484805 0.00435404990875 -5.53051323397e-05)
(0.822135727485 0.00502359809901 -2.25345903525e-05)
(0.821396000987 0.00511604911567 0.000148589997561)
(-0.17265073336 0.0307201557027 0.00120386074197)
(-0.320315685853 -0.038610080423 0.00281197455561)
(-0.0147689477362 0.055992287697 -0.310000406493)
(0.821656448593 0.00498432557386 -0.000217785153645)
(0.758930542242 0.00484540116698 0.000111614351096)
(0.757172098475 0.00146295775416 0.00128649941509)
(0.821221156682 0.00508824296658 0.000542935048154)
(0.820981575882 0.00427049985048 0.000798763524142)
(0.754396303391 -3.0271675144e-05 0.00112902355214)
(0.819429183835 0.00615622899603 0.00207061423427)
(0.819441778303 0.00554649596969 0.00263441831981)
(0.814903816563 0.00726624214938 -0.00084784673715)
(0.818371093671 0.00233643544412 -0.000472607387514)
(0.817973612568 0.00170658092687 -0.000725045436586)
(0.815254504191 0.00718197715758 -0.000560278257917)
(0.818669291191 0.00282742420171 0.000510830964466)
(0.81824772518 0.00185001430943 0.000520535904877)
(0.815453601922 0.0072527855835 -0.00198399994273)
(0.819030587895 0.00292498136788 -0.000634649291315)
(0.819958595228 0.0078484043232 -0.000104485201853)
(0.821454781891 0.00499852027793 8.62207193026e-05)
(-0.34421191214 -0.0968093365029 -0.00290518384351)
(0.11204524453 0.30938252654 -0.329734183976)
(-0.0903695778823 -0.207813193824 -0.202272751486)
(0.821505127052 0.00792019389328 -0.000184672238532)
(0.82136529448 0.00658465035436 -8.3004909707e-05)
(0.756348362792 -0.000130950079896 -0.00175574349701)
(0.758485817767 0.000920460008364 -0.000649137483004)
(0.822014012153 0.00596602086949 -0.00204781737005)
(0.821389261465 0.00451378796129 -0.000770618873843)
(0.820979558966 0.00412758677668 0.000231939327853)
(0.820664082813 0.00381002096204 -0.000589320988123)
(0.819497466784 0.00594702131176 0.00181860088818)
(0.742269008041 -0.0111345089195 -0.000307791415744)
(0.819385212822 0.00518484464186 0.00235700357088)
(0.818700211588 0.0035813090446 0.00180825898702)
(-0.234892484601 0.0257412844036 0.0101738557035)
(-0.10130907278 0.0147532360825 0.00913239152876)
(-0.0871722039609 0.161004321964 -0.0852869872185)
(-0.0857852727639 0.179204170271 -0.0215135339443)
(-0.280585682932 0.0118907673888 0.00968388040885)
(-0.141408596853 0.150067475238 -0.0351285425336)
(0.822304721307 0.00563789434637 0.000459974666129)
(0.822022284227 0.00489411271783 0.00161279825052)
(0.759014229266 0.00385842273326 0.00115120155755)
(0.758778872666 0.00588412045686 -0.000398031744549)
(0.822307061922 0.00493962407505 -0.000275980031133)
(0.758709785511 0.00482990661347 0.000710191548882)
(0.821888745496 0.00575859860521 0.00211450148058)
(0.821487007953 0.00532121323202 0.00192954963283)
(0.819982434732 0.00633814635223 0.00276579148682)
(0.758133171136 0.00269287186058 0.00217058105666)
(0.756953628374 0.00254350939765 0.00134881826233)
(0.820360232353 0.00574340759544 0.00286745589267)
(0.757991866036 0.00373464348023 0.00200685567656)
(0.821116049219 0.00607738808425 0.00230541716937)
(0.819529579084 0.00630633351619 0.00208001338733)
(0.819373612418 0.00652034831608 0.00211621560192)
(0.752182682403 -0.00134665980904 2.62751238235e-06)
(0.754253804783 0.00094198783067 0.00154525072437)
(0.819722755335 0.0061709829621 0.0024172071659)
(0.751992271712 -0.000158742558457 0.00111895833014)
(0.819276533469 0.00651092761326 0.00151516978593)
(0.819443695485 0.00634279420266 0.000644358521491)
(0.747265862259 -0.00482246676373 0.000643875651476)
(0.747081206863 -0.00320355416741 0.00212593985329)
(0.819423569009 0.00624679112695 0.00216200549036)
(0.749604639692 -0.00322615040422 0.000753184576587)
(0.749126872143 -0.00194878468155 0.00166000794993)
(0.819346199177 0.00643707498433 0.00118058979355)
(0.819459444414 0.00499491324153 0.00329572868843)
(0.748067305561 -0.00265065072463 0.00295212344953)
(0.748218324423 -0.00259442662754 0.00354072713749)
(0.819678439582 0.00559514660084 0.00285438585444)
(0.750043105968 -0.00189265664773 0.00304815322623)
(0.81985097778 0.004873109973 0.00299723981851)
(0.750131241532 -0.00157415934379 0.00301450110296)
(-0.0855980842912 -0.00389688913837 -0.00708930094921)
(-0.232776440966 0.147853983372 0.0328391387062)
(-0.0938438578144 0.0354149275926 -0.00571861876529)
(-0.108416805534 -0.021162377464 -0.00484283533866)
(-0.216631334437 0.0204422424592 0.0311021819)
(-0.236675019338 -0.0201678535132 0.0189324216919)
(-0.128629049391 -0.0548564616713 0.000858988486628)
(-0.0663776359642 0.00183831083654 -0.0456764203869)
(-0.05122469982 -0.0234165211773 0.011001193901)
(-0.194088970775 -0.116316461552 -0.00581302474816)
(-0.0728530902338 3.30231431802e-05 -0.00561291588721)
(-0.330474923385 -0.125732753131 -0.00349941193497)
(-0.0663470874728 -0.0412836891602 0.00705801807729)
(0.821293952592 0.00725510809099 -0.00278781758474)
(0.820594975399 0.00765545830093 -0.0029524710796)
(0.756709474518 0.000119660340573 -0.00109522821147)
(0.756584032352 0.00124202333605 -0.00236717498147)
(0.82133975001 0.00780215518885 -0.00257112657872)
(0.820402888071 0.00709968020243 -0.00313681688412)
(0.756915722684 0.00142307598885 -0.00155626866159)
(0.821828492322 0.00744608636113 -0.00185852477068)
(0.822134877422 0.00815541586652 -0.00121238510577)
(0.757257401661 0.000505747552281 -0.00105770645347)
(0.75907612591 0.00154848322191 -0.000540765456036)
(0.8218768486 0.00791865102708 -0.00179767412599)
(0.822202888683 0.00776280504662 -0.00073699866612)
(0.757683488231 0.00141158741009 -0.00141765865618)
(0.757871730459 0.0050387025342 -0.00113594370354)
(0.758639472288 0.00476541394006 0.000551570459929)
(0.822578321035 0.00614435034407 4.98140092272e-05)
(0.821963228114 0.00677118350425 -0.00163085523364)
(0.758977646005 0.00251349260226 0.000411757073143)
(0.822494777832 0.0071714147779 0.000131843075112)
(0.757853577032 0.00254630799656 -0.000899764268913)
(0.819685188697 0.00634796569066 -1.42903091093e-05)
(0.74535075671 -0.00644257322947 0.00019681337871)
(0.745276515035 -0.00469297269361 0.00222360162093)
(0.819667989001 0.00567609159758 0.00120558028327)
(0.743928578869 -0.00849175444323 -2.28146691471e-05)
(0.820066114258 0.00621571941207 -0.000856010060558)
(0.744280719161 -0.00635356652796 0.0022898989133)
(0.819933107338 0.00519780062273 0.000582136060907)
(0.820825357766 0.00533151427494 -0.00216099543077)
(0.742823074035 -0.00984289384989 -0.000235296814755)
(0.743248161456 -0.00976108847891 0.000539563281374)
(0.820483407508 0.00581773716399 -0.00134723207618)
(0.820321472895 0.00461998934471 -0.000765628324981)
(0.743810310641 -0.00795577508853 0.00160685117117)
(0.81894195657 0.00422550961171 0.00245389429976)
(0.819003629887 0.0046167829845 0.0031985733042)
(0.746423970616 -0.00383038375687 0.00290959604833)
(0.746181514967 -0.00343926765559 0.00384241019166)
(0.74516520263 -0.00458358353711 0.00367343520713)
(0.81943968796 0.00483605745942 0.00152446607201)
(0.745285004141 -0.00519064994066 0.00263839007746)
(0.744693257206 -0.00570575772652 0.00290274179487)
(0.744605275536 -0.00741953584171 0.00220461669226)
(0.818716317445 0.00286438782697 0.000271355612638)
(0.819403461392 0.00417039794683 0.000911200686471)
(0.744699436774 -0.00824855050156 0.00103308603084)
(0.819548549775 0.00363667134751 -0.000631087606301)
(0.745030639345 -0.00657388058364 0.00208436669429)
(0.819492328649 0.00129287362621 -0.00143967736666)
(0.8217985534 0.00356321870567 -0.00235531036018)
(-0.311396133023 -0.123944959337 -0.00355174904994)
(0.055917647623 -0.0411269109902 -0.277181269325)
(0.82213861525 0.00626035407065 -0.000684559172005)
(0.758978819739 0.00365925834704 0.000556019105457)
(0.820421888568 0.0031266841237 -0.00256039031149)
(0.820691956504 0.00212843147912 -0.00270559617171)
(0.741143413488 -0.0114402159908 -0.000491063328791)
(0.745864927209 -0.00833473234128 0.000685886425012)
(0.745264482266 -0.010348042202 -0.00252210083406)
(0.821536451551 0.00135647618467 -0.00255506387379)
(0.821943060911 0.000116853730635 -0.00113235751338)
(0.745187687399 -0.00982046138243 -0.00216717365779)
(0.745019309896 -0.0057219407871 -0.00082264941764)
(-0.156076815953 -0.0343053271103 0.00110497405863)
(-0.226894354638 -0.132916435416 -0.00743825571365)
(-0.230206485333 -0.128445235879 -0.00446389884678)
(-0.0247335058087 0.00122730766009 0.00449768647325)
(-0.0350617560363 0.0258257399385 0.00413570551013)
(-0.0269719395522 0.0114119773668 0.00147276518655)
(-0.220307402227 -0.0714581540892 -0.00193715651185)
(-0.182075349459 0.0261891144946 -0.00180981315476)
(0.821515921126 0.00753477445868 0.00161300022096)
(0.822271037896 0.00648776860452 0.000688914594065)
(0.759393361133 0.00172637677433 0.000348529236631)
(0.758877991197 0.00304839048547 0.00129132990442)
(0.8220656164 0.00742647630286 0.000537124191695)
(0.759233503106 0.00130350835827 0.000881245942921)
(0.821631341635 0.00665290245116 0.00209046431401)
(0.820775958877 0.00289412168401 -0.00263218024156)
(0.821048927478 0.00484106178124 -0.00250801173184)
(0.740601564025 -0.0116397998922 -0.000593177225629)
(0.742649646306 -0.0108957253608 -0.000358873994325)
(0.821227075532 0.00422309016898 -0.0031196161507)
(0.820441409813 0.00370632980666 -0.0018163941134)
(0.742147890261 -0.0113748978614 -0.000831049291684)
(0.819965761609 0.0020947776121 -0.00280594853943)
(0.818787504759 0.00204720692497 -0.000907254935271)
(0.744574486344 -0.00954080777818 -0.000605945941957)
(0.745398774555 -0.00987314647391 -0.000919314785677)
(0.819508415784 0.00275710551586 -0.00178602850396)
(0.744195222329 -0.0103497914333 -0.000885356882528)
(0.819189461377 0.00131326542172 -0.0024551841415)
(0.820297368613 0.00130200666572 -0.00302681067654)
(0.820064358435 5.58673933985e-05 -0.00379213664428)
(0.743925629948 -0.0100856332629 -0.00131914944716)
(0.745698132358 -0.0105541593979 -0.00222401693133)
(0.82078997985 0.000543728483611 -0.00324472429093)
(0.743973046559 -0.0104148951413 -0.00131540788913)
(0.819407214215 0.000581858999437 -0.00330956804565)
(0.821607341602 -0.000645195839405 -0.00254419073505)
(0.820816613225 -0.000395539617642 -0.00323243553476)
(0.743579101644 -0.00903070240367 -0.00124928134081)
(0.744984058089 -0.00857643148149 -0.0019290236553)
(0.821302744614 6.46451996039e-05 -0.00267884539396)
(0.743319201894 -0.00768909294522 -0.00150953813799)
(0.82104227238 -0.000904374374585 -0.00281414725212)
(0.821913535365 -0.00120190841555 -0.00155065348251)
(0.821290763649 -0.00230600810295 -0.0015013136375)
(0.742858977172 -0.0050848370428 -0.000546339452009)
(0.74483598312 -0.00710946859206 -0.000998246447488)
(0.822164994965 -0.00206410163286 -0.00106670697217)
(0.742855630728 -0.00644211687288 -0.000876699820682)
(0.82120486337 -0.0014811750642 -0.00183607871279)
(0.796850520552 0.0079105790737 0.00768350647136)
(0.802468908284 0.00984482509889 0.00253065186942)
(0.802142582945 0.0153178695883 -0.00136712331877)
(0.805152271197 0.011689526826 -0.00304474517164)
(-0.00862736747776 0.0610702020371 0.0191677612776)
(0.183631688647 0.0805759411808 0.00800221116579)
(-0.2172446456 0.0780428418873 0.00498121561217)
(-0.0184907811728 0.1140538234 0.00564202289431)
(-0.158457393435 -0.00815318110517 -0.00308033112113)
(-0.130535783992 -0.0176464367568 -0.326155207199)
(0.167555054767 -0.289623057619 -0.0962691025199)
(-0.0756235187657 -0.139840883631 -0.290942579002)
(0.202865456742 -0.108300935656 -0.224336933126)
(0.0415249904994 -0.0791151468039 -0.31809974303)
(0.297837085681 -0.0704823953121 -0.24961890539)
(0.796155572476 0.00222635912263 0.00836990141319)
(0.797687720371 0.00336423218193 0.00846518250016)
(0.758857891826 3.67951933834e-05 0.013930894394)
(0.760105121859 0.00171827439522 0.0104221398868)
(0.792570048855 0.00669742637649 0.00989159107768)
(0.75967631627 0.00234761383529 0.0105581116735)
(0.799336709155 0.00593174964542 0.00704432144696)
(0.801591123635 0.00701950369771 0.00659491734077)
(0.760467740597 0.00111687149548 0.00924995532736)
(0.761507457951 -0.00126479489525 0.00595546375141)
(0.793470982532 0.0132555441004 0.00805072241061)
(0.799925391658 0.00945844726907 0.00519217572442)
(0.797880355354 0.0133007683324 0.00441775902415)
(0.760352743657 0.00170594403932 0.00928064933029)
(0.762114091783 0.00517736469465 0.00874213118002)
(0.762142010087 -0.000967657011595 0.00562806292638)
(0.766280187516 0.00210620120642 0.00250764425344)
(0.798963410229 0.0174152890364 0.00240752067876)
(0.801803781954 0.0211537745039 0.00258221793782)
(0.762239614706 0.00680754710604 0.0088960992476)
(0.763546232344 0.0118392294913 0.00591319259144)
(0.766126947629 0.0034708257613 0.00169600011368)
(0.765706247285 0.00700892265796 -0.00166291750906)
(0.801469597831 0.0122872523388 0.00117259624975)
(0.803448223866 0.0113766702081 -4.53686099236e-05)
(0.762004398524 -0.00138145358833 0.00477205518842)
(0.766533253571 0.000735728365776 0.00224950405586)
(0.767502550206 -0.00145578977915 -0.000201562444992)
(0.803932600321 0.0176819946145 -0.00182941213812)
(0.80423923421 0.013030164121 -0.00212380207713)
(0.80592468979 0.0145693966711 -0.00325021079192)
(0.766719817695 0.00189862724094 0.00130097138074)
(0.765649678712 0.00416446788554 -0.00252327594113)
(0.76781136506 -0.00112764558965 -0.000910380573911)
(0.765554943655 -0.00204261631293 -0.00387909342646)
(0.767724082109 -0.00131098447877 -0.00153870083862)
(0.765197599103 -0.00245248955461 -0.00336802856361)
(-0.0793411714226 -0.0447272992972 0.0247275922188)
(-0.0975276662536 0.00753998967683 0.0231356311988)
(0.0342270017469 0.00861926141779 0.0228664207056)
(-0.201813717731 -0.0653885398515 -0.306946356339)
(-0.0652206296783 0.0249530339862 -0.321605033868)
(-0.187173267355 -0.0867405878782 -0.298151083312)
(-0.0328019810916 -0.0185052374493 -0.32189741496)
(0.0291737142502 -0.120634353021 -0.262940222583)
(0.0444308641861 -0.208994606761 -0.172224606451)
(0.04948034481 -0.137938217758 -0.276621082058)
(0.0186471316452 -0.133251136802 -0.202312991278)
(-0.134462895531 0.0362627930752 0.0192810912677)
(-0.230258784216 0.0647086510753 0.0138088801447)
(0.0937436230341 0.0812704049595 0.0128146282005)
(-0.11416654482 0.0983123193388 0.0112640721888)
(-0.00817166889886 0.121894876281 0.0103750287172)
(-0.139697601568 -0.137925318757 -0.268491262133)
(-0.0205915949999 -0.0830040640368 -0.277516122118)
(-0.096210518806 -0.152399094514 -0.184363112757)
(-0.00245155148871 -0.116997783771 -0.192092846335)
(0.257490477649 0.0599775842574 0.000565704021782)
(0.0892107892873 0.121702000313 0.00844208435072)
(0.152406724005 0.101608170974 0.00471578442903)
(0.106707424832 -0.101345753278 -0.231925020261)
(0.134190706699 -0.0779706967996 -0.153788796019)
(0.110129802293 -0.132717350076 -0.156773907193)
(0.170780231112 -0.0433830585877 -0.0936640271112)
(-0.112524682879 0.101313920583 0.00421866300466)
(-0.177260413894 0.0400597538306 -0.00165324842271)
(0.0162003536898 -0.139593881794 -0.123773511406)
(0.0699864767953 -0.104113564859 -0.109031807824)
(0.0806878828492 -0.0849433787932 -0.0489488082735)
(0.0659296998499 0.106241551971 0.00635337208466)
(-0.105924166222 0.0474723527669 3.23870694024e-05)
(-0.0277877884949 0.057626520568 -0.000182397733237)
(0.16504340014 -0.113888615042 -0.0928595224429)
(0.23709377651 -0.0457474089056 -0.0428619584889)
(0.179762316905 -0.092426426008 -0.0324448124026)
(0.243260255368 -0.0654321634174 0.003918947928)
(0.800782086019 0.00160918963617 0.0145310841764)
(0.797059492287 0.00265716952075 0.0183042844183)
(0.759612279797 0.000349582603512 0.0117815304754)
(0.759017998129 0.0015789813405 0.0138658390524)
(0.797996307344 0.00214009175327 0.0181108990798)
(0.759592619577 0.00185040699862 0.0113629306066)
(0.800008357258 0.00187251400296 0.0149349782231)
(0.801435092069 0.00160897539016 0.0127469543346)
(0.799861341359 0.00291106867349 0.0147037843028)
(0.759615873687 0.00188017462428 0.0120169800631)
(0.760435477286 0.00177830171626 0.0083496566629)
(0.799068649748 0.00212388578231 0.0161261766692)
(0.801931482402 0.00237898032658 0.0116502511354)
(0.760240566497 0.00181995060216 0.00960021793104)
(0.792626038151 0.00519009068323 0.0164605517015)
(0.796575266726 0.00420140685855 0.01421913584)
(0.759208439534 0.00184371317647 0.0122289506673)
(0.759043390971 0.00326662418491 0.0114818359487)
(0.795202877666 0.00371217850613 0.0157620030136)
(0.794382252071 0.00591993791478 0.0152974397781)
(0.758533673265 0.00204968422501 0.0129048409726)
(0.803386448876 0.00388442466724 0.00983197564147)
(0.800377413068 0.00386349896196 0.0129620714946)
(0.760787394967 0.000923775151975 0.00734351504392)
(0.760980730343 0.000341109820606 0.00831400479139)
(0.802824977567 0.00320828537081 0.0103167173749)
(0.801266361264 0.00455188228176 0.011981056247)
(0.761261990129 -9.44787919654e-05 0.00701716097754)
(0.804111430077 0.00444848702196 0.00808900394792)
(0.802908956561 0.0059690494809 0.00880273985783)
(0.760969004654 -0.000577123964449 0.00692718827905)
(0.761200540815 -0.00170357385404 0.00553044590145)
(0.801924475283 0.00533822622269 0.00972292280075)
(0.804642604057 0.0050954973315 0.00741723243956)
(0.760952409474 -0.00109745585768 0.0060050394986)
(0.797440544385 0.0072147295558 0.0115054898914)
(0.798434442177 0.00477736026981 0.0119023570135)
(0.760289721067 0.00291872879075 0.00974999559701)
(0.761027347717 0.000720271636919 0.0081152973166)
(0.795772015344 0.00653927617115 0.0130417122236)
(0.799382994876 0.00533263914451 0.0111000598686)
(0.76157717331 0.00187374564701 0.00809644713449)
(0.796359917787 0.00874289765632 0.00992486839072)
(0.793638742639 0.010551461373 0.0113310739718)
(0.760718894353 0.00368345140814 0.00917943903761)
(0.763617713745 0.00489758546838 0.00593780477091)
(0.794436948927 0.00806040806669 0.0116356497077)
(0.795898721971 0.0109498219628 0.00913486735508)
(0.761783670081 0.00328259533283 0.00684633251797)
(0.799145820465 0.00788948392828 0.00875724787621)
(0.801677130511 0.00676886409223 0.00782785995265)
(0.761350963469 -0.000213912855606 0.00669721948741)
(0.763639925306 -1.4560456888e-05 0.00513481869979)
(0.800701334272 0.00598718284907 0.00866152507378)
(0.800603593465 0.00840304464943 0.00757481808474)
(0.762370759659 0.000859562003002 0.00654345518292)
(0.7984413814 0.00923822837539 0.00708658995607)
(0.799596780094 0.01157726933 0.00470369647979)
(0.765014668755 0.00397483468094 0.0045894689844)
(0.764590732667 0.00093611965971 0.00379152165853)
(0.797977144918 0.0113624409363 0.00619343090575)
(0.800030650505 0.00978725765933 0.00606114644852)
(0.763369930539 0.00243652014458 0.00519077201182)
(0.796918023609 0.015603758573 0.00695969376777)
(0.793927690764 0.013058227406 0.0105045600172)
(0.762511371417 0.00826403042252 0.00741862735494)
(0.763795238427 0.00693954560887 0.00644972238089)
(0.794463821826 0.0160294274864 0.00976353520241)
(0.796452477257 0.0129938232512 0.00833341908248)
(0.764117139228 0.00846912203423 0.00454344436967)
(0.799368209926 0.0177117279048 0.00592546073471)
(0.798878725963 0.0203483047018 0.0074781582733)
(0.76335523268 0.00999284717267 0.00702096235234)
(0.764375713227 0.01187419739 0.002943597203)
(0.796900768004 0.0181165334944 0.00825620227789)
(0.76465667947 0.0101767950864 0.00448459752222)
(0.801537286764 0.0198125830489 0.0043109807734)
(0.799177519406 0.0150682915044 0.00304220671623)
(0.800302475969 0.0129587069355 0.00350822423323)
(0.764971924587 0.0059352825086 0.00408581918392)
(0.766741409375 0.00499232321414 -0.000592441839414)
(0.798616246639 0.0130580557929 0.00526966102454)
(0.800982162286 0.0147124604129 0.0007901059853)
(0.765628804971 0.0072711220737 0.00233381373854)
(0.801431535716 0.016979413251 0.00248906347033)
(0.804839187382 0.0173672690493 -0.00233804860115)
(0.765010998265 0.0102895021787 0.000403231956179)
(0.766566129338 0.00592593887774 -0.00098564497739)
(0.802945426855 0.0161998037267 2.1264157659e-05)
(0.765649951677 0.00888426317633 0.00171394112516)
(0.803576189505 0.0186138181957 -0.000116106759963)
(0.803135696041 0.00861580159897 0.00470532112043)
(0.802834408188 0.00724647218604 0.00602777491623)
(0.763517411249 -0.000668085719419 0.00434210053586)
(0.762544707944 -0.00179430364145 0.00388967248803)
(0.801979295265 0.00866240105036 0.0056856304963)
(0.803778114903 0.00741463960266 0.00524545560606)
(0.764226564077 -0.00132613387581 0.00339436655143)
(0.80273935961 0.0098692281757 0.00349797298916)
(0.80129174889 0.0114430916087 0.00277355436539)
(0.764841618076 5.88847282638e-06 0.00327686236116)
(0.767194289285 -0.000471165315862 0.000701211580273)
(0.801531342521 0.0100790038498 0.00439063730739)
(0.802608480668 0.0110459425129 0.00175675959427)
(0.765623198217 -0.000748789046584 0.00221319993472)
(0.803891837561 0.00972556305343 0.00249562816736)
(0.804485209205 0.0102635916457 1.35280281603e-05)
(0.767311852758 -0.00128380466054 0.00100673666667)
(0.766176573807 -0.00123736093339 0.0010776423643)
(0.803738639162 0.0106622281891 0.00104069383005)
(0.804723137502 0.00970873846383 0.00168955961514)
(0.76589076378 -0.00106682210147 0.00203784014566)
(0.803570417516 0.0131835032792 -0.00171967899789)
(0.801837730413 0.0128831310396 0.00197080621804)
(0.767367324833 0.00291517059054 -0.00052880926866)
(0.767481041017 6.60013986054e-05 -8.12283690502e-05)
(0.802437381737 0.0141274660002 -0.000807355709703)
(0.803020188399 0.0121808337554 0.000936515408015)
(0.767778716491 0.000286298429168 -0.00199620889409)
(0.805034547761 0.0141343305969 -0.00219694862564)
(0.805634431464 0.0162018087321 -0.00371035993127)
(0.766820095952 0.00328589739471 -0.00133885463594)
(0.765816605636 0.000538793159688 -0.00378136703691)
(0.80415364167 0.0153435315035 -0.00128225086893)
(0.767198929963 0.000262922078021 -0.00247004154557)
(0.806425080373 0.0150118547681 -0.00451139082432)
(0.80453905729 0.0123530079461 -0.00183541255863)
(0.804997001526 0.0110291486994 -0.000614523593292)
(0.767816982579 -0.000871229914913 0.000326701121825)
(0.767784960545 -0.00154425921229 -0.00212642604901)
(0.80414011811 0.0116078945707 0.000399115754108)
(0.805355532534 0.0116458847264 -0.00259104252616)
(0.767889692899 -0.00104990544557 -0.0010593597668)
(0.805976068268 0.013289609778 -0.0023897109977)
(0.807980514809 0.0130286002449 -0.00520221779381)
(0.765689457852 -0.00134941014122 -0.00304812268674)
(0.767094529882 -0.00175870116288 -0.00258328252541)
(0.806834878968 0.012257213446 -0.0031192331623)
(0.767200832255 -0.00130986773843 -0.00170278074569)
(0.807252932949 0.0140306955661 -0.00475131390299)
(0.806469208993 0.0109014655893 -0.00399230800572)
(0.805573299807 0.0107484707694 -0.00165279228659)
(0.767511781807 -0.00179232614267 -0.00247158498165)
(0.767568072926 -0.00140437965757 -0.00186944746368)
(0.806021584588 0.011158275437 -0.00342182791778)
(0.80601068329 0.0105193970308 -0.00221138562137)
(0.76716235409 -0.00184139975158 -0.00296665086516)
(0.808596645504 0.0122452564322 -0.00511064638291)
(0.766622602792 -0.00212577529367 -0.00253669592705)
(0.807448356988 0.0115804448113 -0.00352710409472)
(0.817390807828 0.00536421021805 -0.000735509933415)
(0.819099178938 0.00429911619881 -0.000804280855095)
(0.819933798138 0.00272207250969 -0.000825874411383)
(0.817482568991 0.000295854727563 -0.000292567242731)
(0.80970144398 -0.000837872605377 0.000414178272719)
(0.835520758279 -0.0500497370645 0.000646315792899)
(0.817872537677 0.00577258616193 -0.000397240852444)
(0.819216819546 0.00453975644779 -0.000298888534966)
(0.820229160868 0.00354810355637 0.000111353616097)
(0.818578683087 0.000357964261992 0.0021873816331)
(0.81088263026 -0.00142289449469 0.00547409934129)
(0.840367807667 -0.0571455487861 0.00681649647569)
(0.817771892747 0.00622825339388 -0.0001479722146)
(0.812547436322 0.00614403279895 0.00114218061582)
(0.788904339789 0.010867082853 0.00222089798616)
(0.785308081949 0.011401446985 0.00131134336296)
(0.781435405917 0.0118991159902 0.00259904654467)
(0.772457343813 0.015174041984 -0.000288356404375)
(0.781803773859 0.0188165827032 -0.0304306666091)
(0.712370044185 -0.00987820801388 0.0255052606628)
(0.826741893003 0.00548343311367 -0.000259012952776)
(0.82415074895 0.00307463163156 -0.000149804366818)
(0.820023323309 0.000834824007699 -0.0013867008605)
(0.818470961922 -0.000851449881055 -0.00357874174236)
(0.817374581041 0.000202400042067 -0.00393749217568)
(0.81833274124 0.00309991466021 -0.00320953719837)
(0.809730653858 0.0107919191282 -0.000550789207486)
(0.840793745114 -0.0844386417272 0.0102551373432)
(0.82064887272 0.00669772336083 -0.000783437088781)
(0.822650637099 0.00487055849171 -0.000867775488032)
(0.822785607998 0.003902791267 -0.00142131620859)
(0.822297163083 0.00366692039715 -0.00225970892946)
(0.821145589989 0.00348820612639 -0.00224911234196)
(0.82108542889 0.00298307046073 -0.00123793736457)
(0.812467211971 0.00178918433983 0.000663244856098)
(0.845125650658 -0.0642020361233 0.00392102225014)
(0.816922886365 0.00782545621798 -0.00111270043267)
(0.819701026531 0.00503892579335 -0.000866195428143)
(0.820851157371 0.00326913891134 -0.000965696456372)
(0.820991798007 0.00205884918173 -0.00123988334541)
(0.820167927283 0.00152035851036 -0.00142306436951)
(0.820088704786 0.000701916472397 -0.00061956969161)
(0.811460232964 -0.00055370871785 0.000985995287771)
(0.840213142761 -0.0677336946565 0.00257180129324)
(0.819417153401 0.00224069522529 -0.000947884030666)
(0.819041100382 0.00102771289369 -0.000363131669801)
(0.810509230555 -0.000533602529198 0.000650030550406)
(0.8381342483 -0.0530372124902 0.00117753207751)
(0.639732429533 0.0424930945058 0.0109207752454)
(0.635245555829 0.0404586455225 0.0151280955562)
(0.645217285709 0.0254050212986 0.0177662654893)
(0.642778803403 0.0221452300537 0.0161223625556)
(0.639018191638 0.0217592676468 0.0175658983183)
(0.596354528117 0.0235539253842 0.0212649088639)
(0.681227356649 0.0310222077406 0.0247962866943)
(0.159895850879 -0.024191722842 0.062699218479)
(0.77445832771 0.0135464883143 0.0062285304096)
(0.770193424902 0.00957117187513 0.00843563022873)
(0.775374907966 0.00317456224229 0.0107954577134)
(0.773118268344 0.00192374015104 0.0126003300016)
(0.771958417886 0.00412228255172 0.0135333187507)
(0.772092361595 0.00802073498114 0.0186467011859)
(0.771543710219 0.0505344881543 0.0310422436124)
(0.805163888826 -0.182336278134 0.0494768674791)
(0.822339695399 0.00758938522828 -0.00140538777507)
(0.822167958081 0.00617397819707 -0.000883684019596)
(0.821744126181 0.00631871256569 -0.000650395515324)
(0.821788141026 0.00703906120523 -0.000430115924453)
(0.821578758816 0.00761501359258 0.000942572599924)
(0.823751023263 0.00710213981877 0.00449730332967)
(0.816775476632 0.00492942132773 0.0133408482399)
(0.88660955985 -0.114724756415 0.0183478430163)
(0.817529434406 0.00724873786505 -0.000880816667649)
(0.81987446231 0.00502012172171 -0.000688424746648)
(0.820859583175 0.00419024374015 -0.000339153354534)
(0.821004070125 0.00355466206126 -0.000102389970054)
(0.820806408759 0.00289526651701 0.000910124208981)
(0.822667631635 0.00151099963871 0.00400301103817)
(0.814946620896 -0.000612309259664 0.00970483586157)
(0.856386852169 -0.08504135586 0.0131892875285)
(0.819942632443 0.00301286811847 0.000849926675478)
(0.820688414991 0.00138996429305 0.00315290466939)
(0.81227817264 -0.00124156119293 0.00703094383761)
(0.846776635021 -0.0661396688393 0.00867393065451)
(0.633040673428 -0.0149807351801 0.01636133739)
(0.628530353388 -0.014993513443 0.0211152012568)
(0.634717905255 -0.0191933606335 0.0222670148084)
(0.633859301686 -0.0184545059613 0.0233990521845)
(0.636381961507 -0.0144519653802 0.0258935583472)
(0.629914835526 -0.00273925250896 0.0288423324461)
(0.685481257946 0.0596256214343 0.0747116534772)
(0.575603428541 -0.411634666707 0.0165295187506)
(0.733674380889 0.00677699636756 0.0208504511883)
(0.731892664472 0.00106147772246 0.024134348095)
(0.783847639629 0.00105179127079 0.00848403683912)
(0.782842011488 0.000688369562648 0.0100630443651)
(0.784346814816 0.00226546892589 0.0112321088009)
(0.793265703498 0.00140810175785 0.0112330177098)
(0.804688131777 0.0160165410586 0.0153347937214)
(0.910710533542 -0.20838028516 0.0100517413866)
(0.822008418053 0.00724136642042 -0.00201076464022)
(0.823236567192 0.00649590717714 -0.00218133115905)
(0.82343380354 0.00406869210245 -0.00252657993427)
(0.823809805431 0.0025403032805 -0.00287655672225)
(0.825291522667 0.00234884723036 -0.00256340394706)
(0.832197321503 -0.000261305567554 -0.000527378545549)
(0.825519069464 -0.00558004683917 0.000891729434443)
(0.920803048813 -0.188794783698 0.00244314611189)
(0.814683164928 0.0109623506792 -0.00230672605898)
(0.817812279527 0.00792176803321 -0.00197901426535)
(0.820062388139 0.00537394085159 -0.00177317370173)
(0.821681267281 0.00397204315631 -0.00198489839425)
(0.822658685144 0.00313779561229 -0.00255774545047)
(0.823662818284 0.00222134441657 -0.00171658085594)
(0.828372647242 -0.000800355396369 0.000441069697611)