/*--------------------------------*- C++ -*----------------------------------*\
| =========                 |                                                 |
| \\      /  F ield         | OpenFOAM: The Open Source CFD Toolbox           |
|  \\    /   O peration     | Version:  v1906                                 |
|   \\  /    A nd           | Web:      www.OpenFOAM.com                      |
|    \\/     M anipulation  |                                                 |
\*---------------------------------------------------------------------------*/
FoamFile
{
    version     2.0;
    format      ascii;
    class       volScalarField;
    location    "7.65";
    object      alpha.water;
}
// * * * * * * * * * * * * * * * * * * * * * * * * * * * * * * * * * * * * * //

dimensions      [0 0 0 0 0 0 0];


internalField   nonuniform List<scalar> 
28582
(
0.999998068533
0.99999812031
0.999998395983
0.999998113507
1.00000137865
1.00000092545
0.999991424666
0.999995436821
0.0493161492972
0.0540836270999
6.41702371022e-05
0.999993421123
0.861963069878
0.860236839724
0.999999550371
1.00000109742
0.861614690772
0.998715049755
0.998716373845
0.999997306488
0.999996754724
0.999995447952
0.999998412991
0.999996835739
0.999994438412
1.00000114802
1.00000070365
0.999997570474
1.00000014946
0.0554826785322
3.97889564898e-05
-7.23763835065e-24
0.999994919513
0.999993183127
0.900109216381
0.877319519531
0.998886787648
0.999999993787
1.00000046345
0.999997232533
0.998831848412
0.872156480024
0.998794653608
0.998739076784
0.0500805312621
0.0562906277435
0.000551667605718
0.000783073851226
0.0526714734011
0.00137580646836
0.998481145898
0.998348994126
0.857786448844
0.857380482427
0.998406955098
0.854490196423
0.998392739635
0.998298896958
0.998369373245
0.858871767096
0.857531166141
0.998349467642
0.855987022233
0.998332349953
0.998507532475
0.998443968084
0.863697384024
0.858993192468
0.998423187662
0.861367463142
0.998541082997
0.998762408082
0.868362275139
0.866541644525
0.998603263453
0.865936152571
0.863913270896
0.998650920787
0.998652997104
0.865829306266
0.86488634282
0.998590911771
0.86201418666
0.99855274025
0.863162361478
0.0468014529055
0.000904654103698
0.0435669364535
0.0452925104713
0.000646988426479
0.000769946998507
0.0570823064193
0.00015700062902
0.000307837533224
0.0569724878608
0.000184666020383
0.0553621456889
0.000318105417228
0.999105584471
0.999350801341
0.891546551158
0.898309359661
0.999196615543
0.999250913594
0.890330571997
0.998955687704
0.998898600451
0.884176086257
0.8753580418
0.999042316847
0.99878108719
0.882597161895
0.876302661777
0.869361140322
0.998686948857
0.998922246961
0.872470107535
0.998741621859
0.879945038555
0.998871479592
0.86987649103
0.868184727211
0.998872832271
0.871173135598
0.998908049155
0.869659553826
0.99886495014
0.998869099133
0.872387297363
0.87120301483
0.998903813356
0.998823963983
0.871055120069
0.998746238836
0.998728140568
0.867509243423
0.867197953852
0.869000054627
0.998802054059
0.868767746018
0.870456996693
0.871986319191
0.99871090179
0.998786937068
0.870769927369
0.998711182042
0.870256676698
1.00000079076
0.999997586871
0.0553947245721
1.68022884733e-27
0.999991364601
0.865200754109
0.999993615939
0.999989317298
0.870731483437
0.871333738028
0.866144177942
0.99999107167
0.999997257046
0.864553250066
0.862491668061
0.0477414176088
0.0566559432916
0.0567574410404
0.000422517236363
0.000360228602554
0.000404655174736
0.0567302265845
0.0564896055833
0.998513037035
0.998525881129
0.86818009
0.861136171419
0.99859075994
0.864986746312
0.998416237157
0.998638476036
0.998812383582
0.868019151943
0.870056422136
0.998706710813
0.998752440615
0.86803824928
0.998404372683
0.998642473911
0.869987747689
0.869825341748
0.998591629121
0.868114638033
0.99849772605
0.998207413715
0.998152772705
0.864886436847
0.868111165654
0.997995785531
0.866507200634
0.998333851785
0.997967523742
0.998087408361
0.863620477432
0.863143841761
0.997939962701
0.862827928777
0.998097612596
0.998057866046
0.998292210221
0.863161672142
0.862390365452
0.998229198016
0.862753579154
0.99816060777
0.999996848932
0.99999815091
0.999999692846
0.999999085589
0.027048231254
0.0282304102328
0.0254201698842
0.0262519178395
0.0265932187077
0
1.94814339653e-05
-3.79762748934e-27
4.06606122087e-06
-1.02689991622e-26
6.17765520361e-07
0.999999098171
0.999999448889
0.944414787203
0.944166897662
1
0.943294645099
0.999999539854
1.00000016056
0.943616607435
0.946970963316
0.999995823263
0.99999834122
0.999998579192
0.942869654983
0.94160524172
0.946577546393
0.944095121853
0.999998713877
1.0000002766
0.940903583083
0.936514833451
0.943470098695
0.941653252172
0.999998216813
0.999999464828
0.946921071104
0.944120834653
0.943380204653
1.00000082528
0.999999585621
1.00000141812
0.943437163189
0.942350235377
0.942560631539
0.941203169323
0.942152562175
0.940915316256
0.026774542183
0.0265794321005
0.0277239209833
9.56840389444e-05
7.07114465066e-05
7.90270361439e-05
6.53569632538e-05
0.000112519710601
0.000262179907888
0.000114084370079
0.000250815515465
0.0260568859126
0.0254377076765
0.0278037737728
0.0258129169525
0.026468081847
6.45979446236e-05
3.9473800477e-05
2.72382541841e-05
1.1400906763e-05
0.0281501542834
0.0268668516397
0.0268171652079
5.1643390086e-05
9.42729089133e-05
1.33197937806e-05
2.11787469815e-05
0.025969857807
0.0259919212765
1.78744504227e-05
7.85028111048e-06
8.89097324005e-06
0.026221847556
0.0262984819846
0.0264602199547
7.42307931676e-06
8.55952057304e-06
8.01080037459e-06
8.92726956609e-06
0.999889459479
0.999825249182
0.945311284271
0.943632213176
0.999842213914
0.944274272416
0.999895217745
0.9998847863
0.999838136069
0.943834775908
0.944682857082
0.999835344838
0.999903583371
0.944242539055
0.999791640488
0.999788560629
0.94322222334
0.94261618911
0.999809869379
0.999788427829
0.942291664394
0.999911740115
0.999834672438
0.944514572244
0.944175488011
0.999896737747
0.999871950528
0.944963795599
0.999918145052
0.999932332571
0.94566539089
0.947389266843
0.999885582612
0.999927084084
0.946107444087
0.999730254517
0.999745707657
0.94267511955
0.943870233845
0.999718628797
0.999795304515
0.943599815927
0.999696576925
0.999729507323
0.942349980858
0.942366320845
0.999721456509
0.999699787571
0.943029636307
0.999807493977
0.999919691983
0.945402063454
0.945865295311
0.999846275832
0.999889184476
0.944897143628
0.999785705356
0.999803905114
0.943327996556
0.944947808542
0.999770695088
0.999832516065
0.944180292005
0.999743872118
0.999736070449
0.940485110362
0.941922814526
0.999742820825
0.999709335181
0.94158847055
0.999770798654
0.999780520934
0.938963999099
0.937408365152
0.999764307579
0.940018964483
0.999792666353
0.999774215567
0.999800930411
0.942606087841
0.94302183383
0.99976783237
0.999802475623
0.942251074038
0.999798777664
0.999826992555
0.939588541014
0.942610128896
0.999808703099
0.941523644724
0.999797744604
0.999885552148
0.999900548557
0.9458437757
0.946802650567
0.999887083204
0.999888975337
0.945828529998
0.99988630257
0.999857153539
0.94489486232
0.943996189511
0.999869159996
0.999886985813
0.944861799303
0.999886417595
0.999883911885
0.943611508917
0.944286099646
0.99988430702
0.999886263666
0.944464541901
0.999893307113
0.999854717774
0.942963099115
0.943327258738
0.999857127867
0.999888328988
0.942968220675
0.99989641728
0.999893636782
0.942615893267
0.942297840962
0.999875065183
0.942678630176
0.999900054437
0.999889812088
0.999881771086
0.942968317427
0.941908498913
0.999886558052
0.999881606264
0.942459002254
0.999904575733
0.99987949333
0.941677745395
0.941485711777
0.999878313561
0.942023985591
0.999905297613
0.999859215224
0.999864165588
0.94153651308
0.941873207826
0.999857486638
0.999865874225
0.94119475312
0.999864503637
0.941162700652
0.999857563363
0.999998648977
0.999998295314
0.999997510001
0.999991330694
0.99998660618
0.999987517676
0.999998332778
0.99999827457
0.999997766574
0.999990361749
0.999990090275
0.999992186127
0.999980916428
0.999986264839
0.999991611749
0.99999912722
0.999999607142
0.999996152469
0.999964226783
0.999919432125
0.999990617109
0.999987468866
0.999980659716
0.999990937239
0.999994642936
0.999983758605
0.999977368775
0.999983600856
0.999995940062
0.999998104853
0.999997979192
0.999998262896
0.999996395079
0.999988084453
0.999988740112
0.999994884267
0.999996898772
0.999998778218
0.999998366346
0.999996757316
0.999991496574
0.999987830351
0.999992496642
0.999997571699
0.999992841157
0.999987862321
0.999991361694
0.999996710036
0.999970853986
0.999986145218
1.00000851083
1.00000727935
0.999989478775
0.999832190911
0.999768903682
0.999865500515
0.99993922019
0.999982645721
0.999997225845
1.00000118728
1.00000052328
0.999989860716
0.999930015312
0.999931433661
0.99998976937
0.9999967099
0.999998029492
0.999998387178
0.99999813344
0.999995990939
0.999989748258
0.999990659356
0.999999046878
0.999998826262
0.999998717074
0.999998293901
0.999997444943
0.999996390472
0.999996386023
0.99999755435
0.999995765296
0.999994374868
0.999995377285
0.999998232719
0.999986211925
0.999998260301
1.00002231444
1.0000207158
1.00000257372
0.999906341231
0.999839507224
0.999927184878
0.999970327487
0.999985580111
1.00000994574
1.00001757896
1.00001597867
1.00000745568
0.999994522917
0.999984029119
0.999999824041
1.00000151318
1.00000369918
1.00000464463
1.00000424225
1.00000293261
1.00000151296
1.00000066372
1.00000055715
1.00000072292
1.00000094142
1.00000117678
1.00000139172
1.00000104024
1.00000064885
1.00000056604
1.00000083421
1.0000020448
1.00000258798
1.00000217306
1.00000168035
1.00000141993
1.0000014873
1.00000188316
1.00000112248
1.0000016606
1.00000262008
1.00002471868
1.00001591996
1.0000121887
1.00004077436
1.00004337142
1.00001518829
0.999967411018
0.999950634756
0.999999558866
0.999998814364
0.999996685701
0.999995399314
1.00000070725
0.999999859465
0.99999669964
0.999991053929
0.999988823218
1.00000244154
1.00000252237
1.00000005867
0.999997157749
0.999992646461
0.999997224358
0.999999036162
0.99999721675
0.999993104498
0.999992739352
1.00000477768
1.00000031859
0.999996752142
0.999997702007
1.00000104506
1.00000115965
0.999996615526
0.999990457247
0.999991580977
0.999993061367
0.999996065287
0.999999306217
0.999998073007
0.99999286825
0.999992540316
0.999993847622
0.99999138182
0.999995607214
0.999997532351
0.0396352266834
0.0443483554355
0.045478682605
0.0542865345133
0.0568193809664
0.0564551001158
0.0567799360283
0.0554733758948
0.0283064070352
0.0318828062607
0.0394226137816
0.0434745588345
0.0469741093986
0.0532317466399
0.0555509235099
0.0542019944529
0.0542898945627
0.0530195308099
0.0264716056484
0.0309044752575
0.0396257323018
0.0436709265955
0.0480590955472
0.0535261277441
0.0535361939148
0.0526907973328
0.0533117788549
0.053222522071
0.0314748952497
0.0412014887805
0.0446828827454
0.0469736128354
0.0501506313681
0.0511304441875
0.0525872863797
0.0537549251864
0.0546805042035
0.0462538133468
0.0477900965285
0.0504290126017
0.0512812073017
0.0538124232568
0.0544132471544
0.0549843634895
0.0559369056409
0.0553759387992
0.0549674096892
2.44002639677e-05
4.12582739039e-06
1.370777275e-05
2.73220794771e-05
6.17068862564e-05
5.54748647086e-06
-7.58595010139e-27
1.48752317658e-24
-3.31455041817e-25
4.81100886071e-05
2.70639384855e-05
1.4139870484e-05
3.07240451253e-05
8.80397634762e-06
-5.81487982566e-24
2.4587060447e-05
1.76090320857e-05
-4.41232010153e-24
-1.42681890415e-25
4.12939274313e-05
1.34087002736e-05
6.33007385584e-06
2.31090252071e-05
1.00966521004e-05
-1.64569209115e-37
3.6297374128e-43
2.57972063893e-05
1.05383760028e-06
4.34503740102e-26
2.79222074826e-05
7.06048053846e-06
1.4076378394e-05
1.92899263729e-06
-3.30872245021e-25
-2.36312257276e-27
3.26514961829e-05
7.94823949357e-07
-4.17771974723e-26
2.68596909897e-05
4.04999480841e-05
3.52475997762e-05
5.82750656351e-05
3.16601853176e-05
1.4000368087e-26
-8.17540639074e-27
4.81117142724e-05
-4.45075856666e-27
-4.26921969417e-26
7.34108388454e-05
0.999985357213
0.999991667948
0.99998961978
0.999973591001
0.999959875161
0.999983810058
0.99996570991
0.999989378457
0.999982834009
0.999970891331
0.99995867899
0.999969519292
0.999958756113
0.999963951458
0.999989358144
0.999979236663
0.999979091287
0.999985176186
0.999983902989
0.999979747248
0.999978532413
0.999978682412
0.999990053961
0.999992206696
0.999972210365
0.999966387274
0.999984668657
0.999990071745
0.999975194532
0.999958964781
0.999973178317
0.999972438679
0.999985064615
0.999956857454
0.999982213065
0.99999711561
0.999965951522
0.999982913852
0.999992001733
0.999999754396
0.999986918551
0.999995719744
0.999976487179
0.999968497667
0.999981442732
0.999934834228
0.999980578019
0.999964670066
0.999983868852
0.999980222279
0.999989176654
0.999990945801
0.999987291435
0.999990684539
0.999994722204
0.999999225327
0.999992136516
0.999976959706
0.999984622552
0.999998069866
0.999998124571
0.999996842192
0.999993969953
1.00000290326
0.999993785919
1.00000273123
0.999996462685
1.00000252959
0.999994349039
1
0.999977892786
0.999984533709
0.999985399108
0.999983392399
0.999989407026
0.999994715425
0.999999644777
0.999998040501
0.999990322028
1
0.999996207666
1.00000160839
1.00000393611
1.00000924449
1.00000314699
0.999998467434
0.903909914759
0.907512727724
1.00002473837
1.00000733781
1.00000898213
0.903995463734
0.886310167091
0.905884808564
0.887993788169
1.00000550224
1.00000297479
1.00000069745
0.877319070704
0.852978471555
0.878530643723
0.854774595071
1.00002344803
1.00001870961
1.00003342211
0.853875362992
0.855827587566
0.855589960651
0.858947409201
1.00004464275
1.00004689094
1.00004996779
0.858196486064
0.865073069529
0.86101245454
0.867049871762
1.00003014879
1.00004166162
1.00003164652
0.867070894475
0.873274006365
0.86816493304
0.872498979619
1.00000085826
1.00001459651
1.00000513946
0.872952550373
0.868369313678
0.873072914926
0.87316030261
0.99994559573
0.99999373333
0.999977914587
0.866158154147
0.864616512666
0.871271461017
0.862927330302
0.999963240251
0.999970497969
0.999974612126
0.870979431686
0.857944521392
0.866935691948
0.858634342457
1.00000014429
0.999998102846
0.932521712203
0.920128037976
0.939108211581
0.929461771778
0.999998538216
0.999998877198
1
0.916937380203
0.908751776267
0.926051430522
0.913242577176
0.999997347766
0.999997800069
0.999997282984
0.905833848167
0.887853006766
0.907151041265
0.883857394922
0.999996988973
0.999995456568
0.999990608766
0.878096550191
0.854996923908
0.874539842572
0.854709783985
0.999999585862
0.999999182535
1.00000064054
0.855355720643
0.8584231458
0.855123618658
0.859454663326
1.00000030277
1.00000476453
1.00000467958
0.860486066544
0.867020809753
0.861260390923
0.869535926172
0.999998516574
1.00000080249
1.00000066996
0.868221627383
0.873321260167
0.871205327273
0.877207371218
0.999992825409
0.999998336907
0.999998073901
0.874028995086
0.874932705905
0.877955656574
0.873763324639
0.999989151832
0.999995912151
0.999992222082
0.872669159414
0.862797105703
0.870986260972
0.863269289958
0.999997357099
0.99999327811
0.999998749511
0.866836104888
0.860631998199
0.866937355319
0.862098775981
1.00000285046
1.00000296219
1.00000394301
0.94139272756
0.932606428664
0.940942555578
0.939624194973
1.00000118371
1.0000054309
1.00000596126
0.928893653803
0.914444310279
0.937730063572
0.917140516715
0.999996999543
0.999999664469
0.999996119807
0.907118378938
0.881953552411
0.905572165953
0.876948742851
0.999994165142
0.999995506367
0.999992065433
0.873363662217
0.856107872392
0.871478447765
0.863773215491
0.999995911664
0.999997739176
0.999999271517
0.856264688389
0.860519928496
0.864246263468
0.869263090849
0.999998921917
1.00000240842
1.00000272787
0.862210617168
0.871060318114
0.87091982139
0.878103077465
0.999997843489
1.00000146255
1.00000156832
0.872701978946
0.878454299231
0.879147797392
0.879136230106
0.999994817114
0.999998894942
0.999996159296
0.878265689999
0.87253246737
0.877402175008
0.868019854135
0.999991791515
0.999994132933
0.999993892217
0.869936827042
0.863425020411
0.866022612634
0.861685791516
0.99999893658
0.999997353733
1
0.867162742113
0.862725437669
0.865271704782
0.862504581451
0.940657572132
0.939521685057
1.00000396001
1.00000533048
0.938439182512
0.916826860244
0.911370004937
0.999996686848
0.999999367516
0.999995913241
0.904650497385
0.87677130694
0.901109605661
0.877310495528
0.99999697471
0.999997191122
0.999996198932
0.8721005778
0.865398296167
0.873171728147
0.868435395619
1.00000136391
1.00000146167
1.00000227408
0.866374004618
0.871675189541
0.869899408287
0.875698979834
1.00000194253
1.00000576073
1.0000059386
0.873248742493
0.879351398014
0.876959042334
0.880311315952
0.99999866409
1.00000331756
1
0.880104745396
0.878176747218
0.880282140741
0.873234054759
0.99999064233
0.999996559242
0.999992247736
0.8761449755
0.8676822003
0.871041399414
0.866270427089
0.999990639641
0.999992722296
0.999993702105
0.866578882958
0.861721389959
0.866470935029
0.863694409663
0.999997430779
0.999995740585
0.999999563054
0.86511914133
0.862793517625
0.86674069909
0.862155245632
0.999993917323
0.999992916257
0.872981098095
0.868273117405
0.861593618197
0.999999948734
0.999999063812
1.00000165469
0.869798406152
0.875525110126
0.863101438491
0.870530707884
0.999998920881
1.00000280328
1.0000024888
0.876571617466
0.879783729089
0.872361492259
0.87524011412
0.999993630678
1
0.99999742538
0.87907693284
0.87143260412
0.873251170949
0.865821271725
0.999991810642
0.99999337764
0.999993050564
0.869682860157
0.866460574938
0.865177888914
0.865212133327
0.999993129245
0.999997719765
0.999998678819
0.866862847532
0.863832127009
0.866364609626
0.865773738662
0.999997315465
0.999999958016
1
0.86690746146
0.861693130609
0.868830359885
0.860319575709
0.999991626532
0.864867129981
0.999993320106
0.864411007164
0.864658759676
0.999997270305
0.865807982311
0.86641827873
0.99999975265
0.869228290657
0.860230014814
0.000433506448585
0.000486446334711
0.000447365542024
0.000525437542929
0.0359096471284
0.0356849439071
0.000366725641686
0.000196681680646
0.000351589868977
0.000240745621011
0.0433428893839
0.0394866972534
0.0424542136684
0.000282404839069
0.000456198714992
0.000304995076895
0.000442635839672
0.0442432498717
0.0438570016676
0.044014032627
0.000650510841097
0.000863286101185
0.000621411737172
0.000808457165285
0.0504338918927
0.0455684431095
0.0496857913282
0.00142385691642
0.000852563518572
0.00104633316992
0.000720569508654
0.0563763589953
0.0532365653787
0.0554324328741
0.000151848432348
7.21169467231e-05
0.000314726550991
0.00015038048758
0.0560035116053
0.0562241108643
0.0554528890609
2.54193240659e-05
2.62499789915e-05
3.30910956647e-05
2.84421428663e-05
0.056626000676
0.0554653819043
0.0554856140566
5.02291138661e-05
0.000285975045474
2.67343594177e-05
0.000201979680651
0.0566192545355
0.0555337535051
0.0556131205741
0.000387905380423
0.000358304694954
0.000290724160046
0.000276568188335
0.0550168641416
0.0537106748249
0.0564170585995
0.000323368483572
0.00108477967567
0.000259698830655
0.000712125032917
0.0292839434661
0.0273217908862
0.0285758690785
0.000301422267454
0.000469794153374
0.000120237588722
0.000358429071466
0.0355613230116
0.0313804642836
0.0355865899831
0.000350870523998
0.000335714032084
0.000338478149668
0.000382129702631
0.041749960104
0.0394479617095
0.0416745058367
0.000430981808655
0.000519193083863
0.000491624223337
0.000581971898235
0.0443929305642
0.0433212541364
0.0446575208983
0.000574720298598
0.000652339039728
0.000591012606604
0.000626674072066
0.0503691591919
0.0478241753892
0.0509848353137
0.000511991283228
0.000340329421982
0.000439119734577
0.000273939128459
0.0550317667776
0.0537354748553
0.0545627647886
0.00049024670337
0.000364320710955
0.000335963546505
0.000278286444869
0.0543335226663
0.0546291677864
0.0532320474954
0.000143101076089
6.00053453223e-05
0.000380320957851
0.000154830008887
0.0541137330036
0.053141244083
0.0532231151481
1.94137452853e-05
0.000120251845628
8.8536794132e-05
0.000153251948365
0.0546355145387
0.0535191150335
0.0539065828751
0.000206845596044
0.000201592869509
0.000191094640767
0.000169419387421
0.0565013414463
0.0528090403793
0.0563495799352
0.000183198090475
0.000655898954627
0.000164967246882
0.000717110736177
0.0277834041545
0.0267146515726
0.0276692753345
3.26360838917e-05
0.000246174634089
1.99698764484e-05
0.000106955088874
0.0355064390991
0.0306517125592
0.0356734711381
0.000261399426584
0.00037565036262
0.000205824746545
0.000378022003778
0.0420611851718
0.0402531277508
0.0427852221994
0.0004916334795
0.000580749324905
0.000533190855607
0.000616434088098
0.0448355391635
0.0440759282167
0.0450785379561
0.000590154388805
0.000573661727179
0.000576796295354
0.000543829424988
0.0508945553596
0.0476345579552
0.0496875271047
0.000335713529695
0.000173323251694
0.000311198249328
0.000171208922493
0.0536666831808
0.0518153600834
0.0518885410792
0.000114564132504
6.19407326495e-05
0.0001154081055
5.90168201144e-05
0.0524623775723
0.0520905794949
0.0519792713875
0.000215983756691
0.000244527642844
0.000157413931009
0.000285610530223
0.0530408203965
0.0524425082463
0.0532094729012
0.000160878219645
0.000220241028005
0.000212195693612
0.00029160167933
0.0538522222616
0.0535104058264
0.0541504216083
0.000225289315686
0.000188173779614
0.000278076918613
0.000234160302983
0.0569865368407
0.0539529407035
0.0574464410489
0.000165496529329
0.000558620839276
0.000202167940596
0.000530889023412
0.0365733045117
0.0383763799271
0.000192696032854
0.000379582570277
0.000433375191632
0.0436193711383
0.0425669652545
0.0444909092046
0.000531681008269
0.000587662974216
0.000551750342906
0.000599099493285
0.0456118928107
0.0454631263091
0.0462162966717
0.00049985777485
0.000457955850022
0.000510549588435
0.000464420506954
0.0483769988149
0.0470086615282
0.0482715318046
0.000295685825557
0.000167667444349
0.000326230631035
0.000194541156714
0.0505919278991
0.0497534665545
0.0506062919504
0.000113213168838
6.24287800259e-05
0.000129932687386
8.28418029724e-05
0.0517424816723
0.051107993041
0.0516672712909
0.000186694373188
0.00038962911308
0.000312367955391
0.000568905120886
0.0535241330883
0.052924485842
0.0538953988016
0.000269743993784
0.00034981572604
0.000337410731404
0.000394249912799
0.0544900145318
0.0540810256569
0.0549380366099
0.000320511876229
0.000279060466209
0.000352757308031
0.000328033544953
0.0580441747406
0.054856106495
0.0576976434246
0.000249115259591
0.000466149517438
0.000332697780579
0.000490387825338
0.046979422014
0.0483526949927
0.000753922170333
0.000733390485882
0.000964222651939
0.00101466572669
0.0490881164782
0.0497393735004
0.0510645354229
0.000631382418369
0.000479440349254
0.00104248912184
0.000922597913615
0.0511064735408
0.0522004826207
0.0524318783894
0.000401303622361
0.000364896000538
0.000957161879307
0.00101494477174
0.052605293062
0.0529154617766
0.0542609894544
0.000829258544709
0.000605035750466
0.000893073044533
0.00059429409362
0.0544336953166
0.0550049916032
0.0551442074759
0.000380597502555
0.00039291614119
0.00042835034114
0.000416359731785
0.0553670656379
0.0548105284692
0.0555133578649
0.000354286689749
0.000345317900549
0.000365794931652
0.000355651124795
0.0569509089442
0.0550096234698
0.0561084232222
0.000410251560994
0.000703147431115
0.00047002717279
0.00115308351291
0.055904110177
0.00042388338609
0.0557839301896
0.000449879165937
0.00044251333671
0.000446929345628
0.000450558599629
0.0556863181932
0.000376619998998
0.000360805034941
0.000385292522086
0.000372067548877
0.0555730983747
0.00051861810141
0.00150074219512
0.000577848348827
0.00166942833588
0.999896227713
0.999838607012
0.903345103125
0.904691026333
0.999865806682
0.904698439697
0.999865333527
0.999850794497
0.999849506633
0.905790938427
0.908297598004
0.999822990293
0.999870709255
0.905828798451
0.999784432268
0.999827448695
0.90243952998
0.904290371509
0.999851423972
0.902413591967
0.999782813795
0.999661824054
0.999395829214
0.896018494051
0.886971887641
0.999422888317
0.896126630999
0.999649290828
0.999758878924
0.999828236137
0.905092298042
0.903339201375
0.999806409005
0.999759856546
0.903261922268
0.999657482829
0.999438901823
0.888178810689
0.897208461967
0.999456698932
0.999657776862
0.897231834465
0.998855836743
0.999119185377
0.868226262606
0.878354318397
0.99912116092
0.869147443703
0.998801170743
0.998640313167
0.998527163027
0.860509609705
0.854193756988
0.998531241509
0.861533616012
0.998570702445
0.998897106785
0.999179884517
0.878845127367
0.868915579664
0.999201487221
0.998843802227
0.869236933384
0.998632836303
0.998515983476
0.855175815224
0.861852320342
0.998549544936
0.998540208362
0.861872387446
0.998714755253
0.998537369658
0.853508806881
0.85536369495
0.998602362808
0.855432241983
0.998688171493
0.998848203552
0.998801749682
0.853922191657
0.857569479854
0.998870098386
0.85586119122
0.998805705142
0.998754564448
0.998541194287
0.856659052008
0.856471814009
0.99861824042
0.998676439993
0.856921396687
0.998889585985
0.998966892812
0.858626165952
0.857247647057
0.998940642719
0.998882103619
0.857330592814
0.998870353258
0.998797374596
0.861072896614
0.859902605442
0.998866684867
0.862829956953
0.998804520573
0.998863251628
0.998741764229
0.863206114444
0.865972057779
0.998820466588
0.864639708725
0.998804910251
0.999003417584
0.998976269919
0.860611957619
0.86391104613
0.99896819619
0.99899831168
0.863564577166
0.999009136224
0.998981690866
0.866283336604
0.865808747342
0.998987942159
0.999009371297
0.865311698938
0.998431806742
0.998552780627
0.869564095243
0.867641312246
0.998655638018
0.870222968261
0.998345662576
0.998311344675
0.998333205463
0.872036111198
0.872817742135
0.998313599396
0.872343886935
0.998328413918
0.998578566168
0.998857178835
0.867531292895
0.869425044416
0.998854504163
0.998610745345
0.869288792228
0.99836350627
0.998265376893
0.872726174236
0.87109325769
0.998290178712
0.998383763197
0.871298438548
0.998321220343
0.998338947827
0.872469510919
0.872585503732
0.99831158911
0.872542714921
0.998342742803
0.998397952222
0.998597966329
0.870765496238
0.869742182407
0.998509905186
0.871467692525
0.998424771391
0.998272322129
0.99822681753
0.8732477203
0.87419143075
0.998271819997
0.998205428375
0.874092362799
0.998306671686
0.998229766374
0.871763295257
0.873712021295
0.998393638913
0.998183671565
0.873236285054
0.99861807721
0.998693439524
0.864293326531
0.867829162942
0.998614991763
0.866065723713
0.998667880471
0.998611152906
0.998601544131
0.863810050087
0.865060986038
0.998570476328
0.864644615354
0.998628857089
0.998431080248
0.998330144289
0.869594148583
0.868828438228
0.998441058638
0.998340312143
0.867377751878
0.998345440795
0.99819716449
0.863143158823
0.865754008258
0.998300941553
0.998276818287
0.864582588827
0.998403721527
0.998604476861
0.869053096064
0.87046573381
0.998573571064
0.868503979633
0.998447676603
0.997594161338
0.997995840492
0.842599026283
0.857781260208
0.842344497267
0.997968958407
0.997576604085
0.997961968377
0.998102506991
0.867671192138
0.86484076855
0.998233229011
0.997826607939
0.86525071955
0.997119529456
0.997603550661
0.857790605899
0.839044042848
0.997037939395
0.838542838703
0.997656070023
0.99978495897
0.999782992333
0.928429947369
0.93387733273
0.999792593905
0.930181497763
0.99978674873
0.999771153552
0.999780487088
0.924125517013
0.923517436936
0.99978663741
0.999756638983
0.926885866971
0.999778998768
0.999824401284
0.936314342667
0.935963798282
0.999819504402
0.932787507523
0.99978506429
0.999750396206
0.999755147972
0.926389733442
0.932958469101
0.999716344249
0.999799837358
0.929746873231
0.999688415807
0.9997481035
0.913631157905
0.919831904992
0.999729830536
0.999716240196
0.916299501844
0.999658001717
0.999662724552
0.910549691285
0.910906315753
0.999710526143
0.999637176508
0.913431364699
0.999601999983
0.999686957421
0.922381720617
0.922561359628
0.999648839505
0.999677977129
0.918609703178
0.999592335986
0.999639676189
0.911705994885
0.91791500999
0.999594891053
0.999661897763
0.914786667603
0.999504757063
0.999635347493
0.9024397559
0.906452406421
0.999557803894
0.999574257951
0.901233597465
0.999413138999
0.999302703398
0.896495812381
0.886754237053
0.999463884198
0.999248189038
0.894552994908
0.999484075516
0.999600991041
0.906554674199
0.900281348376
0.999555168692
0.999504858665
0.900408672909
0.999396735208
0.999215970778
0.885720827609
0.892807413265
0.999251345229
0.999383175359
0.893279699467
0.998737503911
0.999072853155
0.868618764346
0.877860267829
0.998756833588
0.999026907389
0.867816453101
0.998453439135
0.998355864075
0.861825428486
0.854170291146
0.998431943175
0.998305423209
0.860821733249
0.998829189281
0.999026061187
0.877212118466
0.865977412458
0.999072908032
0.99879148748
0.867732125629
0.998559029853
0.998518487152
0.854232887536
0.860769793982
0.99844611024
0.99858652735
0.860887315782
0.998411068017
0.998374635553
0.856084754232
0.855093727089
0.998510141219
0.998336331918
0.855763154754
0.998529077577
0.998746841934
0.856923743864
0.857802693212
0.998674982497
0.99862656152
0.856287367488
0.998393753696
0.998381814172
0.855128169044
0.856829680565
0.998366581907
0.998375116284
0.856417187225
0.998464019622
0.998481873625
0.858421448786
0.857945744787
0.998540639622
0.998423784151
0.857151183298
0.998675958974
0.998758150375
0.863590829819
0.859984973885
0.998780443377
0.998649031748
0.8634983845
0.998709954915
0.998779820056
0.865717454118
0.867652438592
0.99879409519
0.998727840564
0.865994266194
0.998545124071
0.998497131398
0.860403896082
0.864497028949
0.998534949511
0.998524199189
0.863790321983
0.998582389053
0.998681628384
0.868036668596
0.86737031421
0.998644969848
0.998590141283
0.866357988078
0.998612152393
0.998708123841
0.869734522128
0.869061399946
0.998565660135
0.998685129938
0.870746781967
0.998521825342
0.998344250954
0.871841013101
0.874656650087
0.998442470359
0.998454442399
0.873003342905
0.998678575128
0.99873601879
0.869506173379
0.873157364933
0.998655519799
0.998759105449
0.871511791304
0.998718315821
0.998893800543
0.875804728472
0.875660037685
0.998750573149
0.998818711373
0.874302520484
0.998204182313
0.998224713867
0.875306440141
0.875292354677
0.998050946912