/*--------------------------------*- C++ -*----------------------------------*\
| =========                 |                                                 |
| \\      /  F ield         | OpenFOAM: The Open Source CFD Toolbox           |
|  \\    /   O peration     | Version:  v1906                                 |
|   \\  /    A nd           | Web:      www.OpenFOAM.com                      |
|    \\/     M anipulation  |                                                 |
\*---------------------------------------------------------------------------*/
FoamFile
{
    version     2.0;
    format      ascii;
    class       volScalarField;
    location    "7.65";
    object      p;
}
// * * * * * * * * * * * * * * * * * * * * * * * * * * * * * * * * * * * * * //

dimensions      [1 -1 -2 0 0 0 0];


internalField   nonuniform List<scalar> 
28582
(
17096.9530675
17095.4622298
12197.916676
12196.9485579
7296.45005891
7297.15319475
3618.01559642
3619.2585759
41.513224714
46.7205358401
-27.7485796236
3617.64710252
629.270333174
632.210214966
3622.35501623
3623.58766954
636.066968243
1788.7271631
1789.69868899
17099.013632
17095.3120221
17095.7514845
12200.5470793
12197.3741515
12197.8815157
7300.94811773
7299.14352211
3629.16464915
3625.00512044
47.4048078848
-27.5409341302
-27.2712753906
3622.45375714
3621.76915439
636.276262131
630.011695275
1782.5576233
3626.65840933
3626.34485659
3627.92503911
1790.93672657
648.924131663
1791.88002618
1795.28469723
42.7445786641
48.9677453392
-23.1067013815
-23.0355113872
45.2867895932
-23.0601060793
1774.28742279
1774.37341227
628.553305787
629.002248003
1773.93095472
628.865502311
1774.07609832
1775.96166005
1777.47701121
629.227204842
634.068582408
1777.59243038
630.72891639
1775.39055714
1782.8298434
1779.540694
639.304358334
637.859694908
1780.01047922
641.119209052
1782.24688153
1787.92389708
644.793917765
646.715345957
1785.81210691
642.23691551
644.135785502
1785.12420052
1790.59641759
648.31892031
649.739105949
1786.80347948
647.255841788
1787.68537149
645.868342896
37.8323168047
-23.009755858
33.7203091816
35.9649829799
-22.9307234961
-22.9432097425
49.2320045694
-23.0756135272
-23.0071339877
49.140152066
-23.0618333996
47.4314158657
-22.9813631387
1789.94918219
1795.73290187
634.666192349
636.863102492
1790.35385717
1795.21052012
635.230261283
1784.82026167
1780.50198623
632.249129708
630.605627183
1785.19638471
1780.07032446
632.782457356
633.075624838
630.997211306
1778.01096663
1783.9231925
630.854752267
1779.18932314
633.044896163
1790.17845191
647.155875696
648.925178046
1792.39430807
648.368608233
1791.70541724
649.932641102
1793.13419467
1792.43989984
649.05593157
650.498272942
1792.45876101
1793.19381483
650.514350469
1794.35910482
1792.79747847
650.257792613
651.550766735
652.45965141
1793.33512685
651.231189908
653.204352652
653.394892155
1795.51154756
1794.2110894
651.978871983
1794.33305348
651.927601606
7299.82076781
3626.93196436
47.7471538395
-27.2136751592
3618.18757103
629.295633804
3628.31207271
3627.42482445
648.398552767
652.963155366
650.750575199
3626.50810791
3625.94603908
649.926633047
648.125455926
39.1467043062
49.1522092569
49.384123073
-22.9109550588
-22.9663453844
-22.9016127476
49.5497929841
49.2720373833
1774.56548606
1775.07111089
629.059291165
628.493366349
1776.0188189
628.370933068
1774.0769662
1791.81604608
1791.90140794
647.869233946
650.033960137
1790.90668512
1792.76563277
649.432444878
1792.96237827
1795.20438659
651.530218913
652.322634218
1793.92187832
650.900783034
1794.37148305
1791.81909002
1791.67460648
649.721797122
651.532827608
1790.60306942
650.330599252
1793.11400084
1788.90890218
1790.47343614
649.011702575
649.199289188
1789.63453762
648.508519199
1789.42921233
1788.52493983
1788.42097956
647.766380138
648.51767772
1788.48634228
648.039188263
1788.71680934
3653.13231135
3650.15506324
3647.70743435
3646.46232142
12.2748638795
13.7561258202
10.3795302362
11.3410513275
11.7499368655
-27.1375828384
-27.2374057016
-27.0843678678
-27.1294239941
-27.0527361827
-27.0632189388
3655.35536918
3654.45993308
625.014507861
623.979226179
3655.26785028
624.875322267
3653.02552205
3651.98650684
623.262473552
622.308782247
3652.98300978
3651.47171541
3650.66571803
623.925084132
626.33948522
622.407605345
623.073058875
3649.25381779
3647.19444621
626.600514117
623.718680625
623.118263546
622.161518124
3649.0383111
3648.15851864
622.245976787
622.495708293
621.932004115
3646.05170532
3646.90650807
3645.60679376
622.473722222
621.965207751
621.864298472
621.893789396
621.94657438
622.244147277
12.0411101307
11.7922915368
13.1460560048
-23.2083479798
-23.2066421115
-23.2145668582
-23.2223182372
-23.2190296212
-23.1737770664
-23.2492324247
-23.1760775102
11.178289509
10.4066192517
13.1784949793
10.8905164144
11.6118634043
-23.2222722148
-23.230678931
-23.2212884545
-23.2342495404
13.6894494649
12.0849244699
12.144810386
-23.2340498523
-23.1956790113
-23.2391504711
-23.209911133
10.9988377792
11.0086479853
-23.2219196437
-23.2351063917
-23.2328713946
11.4182776687
11.3755524351
11.6274147882
-23.2339871656
-23.2027064841
-23.2330916243
-23.2064789307
1816.24873184
1817.22567924
624.032292958
624.777526707
1816.74700148
623.655212181
1816.77402662
1815.81320444
1815.78300335
624.476074289
623.146277208
1816.30404785
1815.41420389
623.358269705
1817.24672438
1816.16778291
625.553836404
625.982251204
1816.83650409
1816.52766241
626.639091458
1814.71082839
1815.13143555
622.620358264
622.797675442
1814.9282888
1814.73501594
622.294243521
1814.67853208
1814.51714337
622.514095458
622.255007686
1814.59490264
1814.76396748
622.205423519
1815.05993458
1815.36205969
625.052532962
623.401048146
1815.68556336
1814.86429271
624.15234181
1815.19665306
1815.77282147
625.841121018
625.043860014
1815.8930085
1814.8914375
624.67604893
1814.52112861
1814.28076074
622.855463737
622.707927495
1814.59082563
1814.05622414
623.318163589
1814.40219875
1813.33236467
623.920729085
622.937175706
1814.02929392
1813.75852393
623.688312454
1813.29378531
1815.29021657
626.249319407
625.244428064
1814.29700405
1814.26151075
625.075480795
1811.74206951
1809.75421518
625.251041526
623.009687572
1812.47712977
624.259142084
1809.34225541
1812.48364341
1812.72800437
623.999671201
623.060725067
1813.40643866
1811.91576663
623.921414204
1811.08154758
1809.19584931
622.417357922
622.721529792
1810.74025858
623.379486076
1809.05120137
1813.22114206
1813.99971194
622.347666501
622.012836832
1813.60988122
1813.68898964
622.107763145
1812.74127582
1812.70456591
622.448227327
622.136229363
1813.17613457
1812.23796725
622.155864015
1812.38280612
1811.59472418
621.984026467
621.994507247
1811.87189785
1812.10912068
622.02533267
1811.10352331
1812.11448776
622.387389755
622.048167243
1811.38531855
1811.69768949
621.945078344
1810.36791115
1809.22149386
622.132101953
621.752531808
1810.42684417
621.782351698
1809.44671376
1810.84282069
1811.09214196
621.924301132
621.818162092
1811.36047262
1810.63415674
621.812469732
1810.28839946
1809.75609433
621.726327047
621.795857566
1810.20972379
621.714502354
1809.60041458
1810.37645443
1810.8884661
621.981386428
622.218632582
1810.49751539
1810.72855591
622.292204903
1809.84553236
622.048602123
1810.16280765
17095.5803789
17093.924803
17094.0393921
17096.0535468
17096.3349272
17102.2621732
12196.6561205
12195.3848355
12196.0246175
12197.9784319
12197.9962918
12203.7635586
18312.0970328
18313.5720509
17084.4421523
17089.565883
17094.7024214
17098.7045698
17104.6411645
17095.1561167
18314.0250208
18314.7474852
17089.9767841
17091.7325496
17093.9131685
17095.2825724
17095.6641759
17101.5716362
17094.2454848
17090.9233294
17090.3326625
17091.8740054
17093.6650945
17094.695135
17095.4601147
17102.4949368
17097.3511899
17093.6914743
17092.4775725
17093.2850346
17094.6135273
17095.1668824
17095.4835654
17102.4644496
17094.8317693
17095.3404793
17095.6177001
17102.0670345
13411.9661303
13412.4896506
12188.0601235
12191.220335
12195.5686766
12201.0211354
12218.2057195
12159.2268801
13415.8936781
13415.3823523
12192.6939313
12194.9515649
12196.2459852
12195.940111
12193.6981041
12187.2300723
12195.314075
12192.2204215
12192.1061553
12193.695921
12195.3343842
12195.6817303
12194.7580074
12198.9565917
12198.8498146
12194.9720212
12194.2555973
12195.4633018
12196.6831
12196.721188
12196.0964723
12202.3131088
12196.9017917
12197.0230493
12196.840363
12203.1087366
8511.98345704
8511.67174706
7286.69043073
7291.78580162
7297.57152654
7303.05694345
7314.8610233
7248.13926971
8516.68980552
8515.59815737
7286.8425796
7291.9453079
7296.64051233
7296.70466449
7289.2797691
7278.87101121
7295.9920656
7290.51209176
7290.70140821
7294.23601249
7296.86832295
7296.90305948
7292.76959819
7297.20311911
7307.76220968
7299.68154656
7293.62630134
7293.33831808
7296.10157495
7297.77968606
7297.40884804
7294.61348251
7301.30410463
7295.44358473
7295.18066502
7297.42330424
7298.47318056
7297.89247891
7296.24898309
7303.64063136
7298.929326
7297.51833105
7304.48386313
3618.81293062
3611.61293274
3608.05228435
3615.80441458
3624.43072462
3628.94649824
3632.68208544
3637.93652531
3626.53936834
3621.47121175
3612.94975424
3608.28915122
3615.80264038
3623.62954041
3626.97403117
3623.95272941
3616.30582562
3643.52844676
3636.22670574
3625.21013619
3613.41001396
3610.63184311
3617.90265761
3624.30864577
3626.20921492
3623.12455488
3622.43908693
3640.6311035
3628.62362102
3616.25305104
3615.0207154
3621.179583
3625.71692264
3625.47702083
3623.28179762
3624.23592781
3618.25464059
3617.99173437
3623.15370543
3626.00258835
3624.94804153
3624.28041677
3625.55972967
3625.52621517
3625.39621545
3626.76291177
28.2726769868
34.6159657805
37.3019311386
45.9012363196
48.7656104125
48.3366325751
49.3788665768
47.6363132535
14.3469760804
18.9084570041
28.0752625659
33.566403608
37.3276693725
45.2667181368
47.3877829128
45.5486168347
46.1181930142
44.2747650457
11.8825670536
17.7735018199
28.6460401231
33.9447748766
38.3680245228
44.9294255635
45.042064914
43.9895041697
44.9282909066
44.479102796
18.5439333415
30.6532719684
34.9847013041
37.2235553053
40.9754589772
42.2154002865
44.0958392238
45.6211512554
46.3174193821
37.2162784506
38.8312391055
41.8539252175
43.6823632895
45.8042798519
46.5547777578
47.0143566996
48.5808168416
47.7721569865
47.4035545503
-27.1885917781
-27.0619298725
-27.2015415142
-27.4068264762
-27.5571227117
-27.1241134369
-27.2145805842
-27.0875357517
-27.1437971289
-27.4256490374
-27.2947394331
-27.1572849805
-27.5129098737
-27.154377608
-27.2861464088
-27.2446707393
-27.2441670103
-27.1032714432
-27.1577733072
-27.38258625
-27.1661993674
-26.9557937603
-27.1805145778
-27.0902293173
-27.2300633202
-27.188236906
-27.3454033874
-27.0991749002
-27.1799946535
-27.3336551057
-27.0277747951
-27.2559214802
-27.1897394166
-27.2477703444
-27.1134158928
-27.3749406533
-27.1006165038
-27.1986719487
-27.3717360634
-27.5251353845
-27.4671469423
-27.4914268871
-27.3223768623
-27.1137319328
-27.1872753914
-27.5005394545
-27.084321835
-27.2127870352
-27.6509307985
18312.9778311
18312.2991769
18313.2801893
15862.3445096
15863.3348591
15863.085377
15863.6681133
18313.6971349
18314.1990605
18314.5303098
15864.0345919
15859.9732425
15863.9422312
15862.3532573
18314.1051773
18316.4240527
18315.3427925
15864.8296743
15865.1258628
15866.979887
15866.3090933
18314.7421691
18315.2949267
18315.4485857
15865.2901174
15864.5910653
15866.3417651
15866.7151711
13412.4619365
13413.379861
13413.4373725
10961.3761528
10961.9250016
10963.0872849
10963.3473138
13412.2516485
13413.091067
13413.5731475
10961.8313154
10961.3179014
10963.0175222
10962.1481124
13415.6821672
13417.5788085
13417.0401246
10966.0600012
10965.9938653
10968.1388904
10967.0861725
13414.6366786
13416.6858866
13419.3652308
10965.580992
10961.1617943
10965.8528992
10967.8055356
8512.26269387
8514.03995527
8513.94251313
6064.31143549
6063.82509332
6066.22154609
6065.1337832
8510.38599508
8513.12379271
8512.18915967
6062.11305869
6059.83194653
6062.92173546
6062.26247801
8516.32090281
8518.8075997
8517.30865986
6068.3282352
6066.77472507
6070.1415222
6067.6005908
8510.65737817
8515.58933329
8516.01442257
6064.6120129
6061.18656474
6065.15254798
6064.54900749
3619.22767878
3621.7508541
624.261641266
625.695751554
3616.1042817
3620.5979827
3617.4496072
628.73641114
630.772420468
629.438841143
629.38163579
3607.70938157
3612.52561091
3608.24953698
626.805430191
615.596089404
625.671282221
615.885162451
3611.1898762
3607.7900238
3610.96728489
616.52310982
633.139701611
617.606073271
632.044760063
3620.88867923
3615.66780724
3620.59719491
638.464616069
648.828077574
637.096150698
646.996463477
3627.24253213
3624.04092931
3626.77572306
650.459661383
652.181422598
648.41299966
649.80130195
3630.66556023
3628.37724053
3629.15377677
652.710334192
652.037259931
650.355136248
650.170876796
3633.38248344
3628.08537504
3622.79583941
651.127974866
649.830546785
649.230081065
644.07438346
3596.93452529
3612.84394413
3609.06096607
651.057254844
608.864654151
643.000326536
623.131467124
3642.84367131
3637.03219555
621.520572985
618.143506938
621.277746769
621.142586887
3624.01123136
3631.98086804
3627.68835579
619.129389653
626.485701882
622.536947597
629.197237927
3617.77093405
3623.07819952
3617.93782896
629.529595826
628.505733814
630.535714373
626.260501587
3608.83764048
3613.00914363
3609.85084336
624.934195274
616.404953942
622.933090243
617.799614805
3611.27842226
3609.75609671
3613.07064881
618.586497649
632.26334637
621.065814472
634.276844153
3620.49926048
3617.02341195
3621.20630511
637.187022325
646.850118468
638.812865783
646.1266039
3626.1842633
3623.94036942
3626.09464698
648.059862833
648.818399855
647.175045405
646.98133272
3626.18728588
3626.54976714
3625.51677357
649.312540543
649.205750442
647.167594387
645.852258465
3621.06579456
3623.46287517
3620.95476387
648.328078612
642.889397104
644.74190871
641.276472653
3623.84298919
3618.56310145
3630.94877196
642.115238317
624.66950482
641.401132721
627.056839797
3640.15095063
3644.13555223
3642.09518069
621.657171979
622.076116495
622.097886969
625.480131514
3631.35609831
3639.13912816
3633.99744895
623.705725906
630.101898714
627.95712555
632.79001169
3618.60759605
3627.09321173
3619.65897651
630.845833115
625.645833014
631.96016114
625.509414685
3610.43291082
3614.51806976
3612.00925293
622.587278405
618.818073608
623.505268313
622.718322724
3614.1127266
3612.81298686
3616.2329781
622.114420548
634.722327843
625.427883231
634.920752986
3621.77258079
3619.74335373
3623.07001832
639.111514206
645.742074035
638.494847027
643.997825385
3626.01870134
3625.24341361
3626.20370726
646.792877985
646.881193176
645.305651041
645.943934533
3624.87068394
3625.90478009
3624.55495178
646.954056556
645.094656419
645.683471936
643.733757913
3621.94366449
3623.11245915
3622.58779741
643.883017031
641.220914329
642.832828825
641.899745414
3633.97599695
3623.55946933
3634.7011803
641.841327963
627.93700895
643.222149945
630.207370691
622.579487805
626.522075184
3635.6048583
3636.05358373
629.34611402
633.781509333
636.503649994
3621.10976183
3629.33140584
3622.15779013
632.556809187
626.193836459
635.563682017
629.156148865
3614.40835497
3617.61306641
3616.25841978
624.479653109
623.836985245
627.617925189
627.296313762
3618.08426789
3616.88038542
3619.58559
626.234847521
634.773132123
628.851224879
636.227317552
3623.97225143
3622.26585644
3624.67140264
638.028241823
643.46201592
638.856842105
643.903577954
3626.03454824
3625.95179036
3625.7569198
644.830804343
645.41323572
644.628670493
644.013923462
3624.33739586
3625.16273645
3624.35770597
645.156289909
643.642297961
644.090900597
644.556973249
3623.16190148
3623.73046885
3623.865388
643.075105937
642.448476459
644.590823453
644.714879067
3634.66971388
3624.83559202
3634.38508542
643.706268151
630.959141201
645.252650363
630.556635186
3617.22739155
3617.53866873
628.334764079
628.145824683
630.450263895
3620.69819423
3618.56425912
3621.40196376
629.809115009
637.309714687
633.543609004
642.450039814
3625.29219676
3623.93485857
3625.91066235
639.81134833
644.338737531
644.857333153
647.567750592
3625.48337583
3626.28778816
3625.54278123
644.720551165
644.114319572
646.97753526
646.14282562
3624.56535168
3625.06992709
3625.02507681
644.234246415
645.040184693
646.235252393
646.516912603
3624.57332078
3624.97227553
3625.28437129
645.142935082
645.438821519
646.561358739
646.987364515
3634.09162636
3626.22943949
3633.80638301
645.915030797
629.517626179
647.361024415
626.943256007
3626.11358884
647.355370153
3625.43541135
647.180203927
646.94120466
3625.70212406
646.943407269
647.380470551
3633.60571226
647.83224798
626.416518216
-23.1387048694
-23.1024816496
-23.1251811698
-23.0970411353
23.6256720867
23.4288986223
-23.0445928423
-23.0394517719
-23.0284870034
-23.024885221
32.9621028795
28.068890249
31.929178044
-23.0146990151
-22.9767469693
-22.9903138049
-22.9388741091
34.922220348
34.0708518767
34.5789612276
-22.9634900038
-22.9725964173
-22.9094765248
-22.929289869
42.2614841586
36.726677884
41.2296393742
-23.0160312948
-22.9538031973
-23.0225964719
-22.9162192786
48.3090225991
44.9854597236
47.3356309252
-23.0373576105
-23.1261656932
-22.9494933675
-23.0483192104
47.8285307659
47.9642336796
47.0648330908
-23.1496057923
-23.1394845406
-23.0985239313
-23.1244613892
48.9301258315
47.106136229
47.4751261341
-23.0946396423
-23.064466396
-23.0810225624
-23.0767290191
49.1202591734
47.7638666776
47.7862127043
-23.003504292
-23.0088506765
-23.0243574835
-23.0352040498
48.7595431779
45.3736066524
49.572585967
-23.0897071257
-23.041664529
-23.116282865
-23.0609615798
15.9318325868
12.9638928519
14.902784042
-23.1749172193
-23.1296882922
-23.1870187441
-23.1292451073
23.3498757836
18.3618059476
23.4450998746
-23.0596913936
-23.0564213271
-23.0553661567
-23.0461977346
31.2185294074
28.2419656727
31.2304346009
-23.0326228966
-22.9767667542
-23.0083849229
-22.9570235645
34.819816302
33.5142121421
35.1576210379
-22.8615625183
-22.8692551396
-22.8396732072
-22.8501126381
41.4049027774
38.2961699172
42.1433464344
-23.0055282284
-22.920632484
-23.0227445355
-22.996547078
47.2313350347
45.581505154
46.5268051658
-22.9459949261
-23.0080777948
-23.0221148879
-23.0518424727
45.8130690286
46.6350743177
44.7338475996
-23.0828916119
-23.1081057872
-23.0626538172
-23.0837379345
45.7005801254
44.3995070923
44.6820034048
-23.0758271675
-23.088985423
-23.0661890889
-23.0691246653
46.4342665661
45.1288166486
45.475068186
-23.042778829
-23.0634318024
-23.0404890825
-23.0663598223
49.5323144453
43.9866208299
49.4856342693
-23.1318181148
-23.0554126719
-23.1269990583
-23.0536881366
13.8046546762
12.0773575607
13.5606413165
-23.1758159063
-23.1043476412
-23.1857131204
-23.1024102941
23.4705277987
17.5500185971
23.7712944044
-23.0185573669
-22.9879261213
-22.9955286142
-22.9625233291
31.7944873791
29.5148034792
32.7094596842
-22.8762268124
-22.8430041316
-22.822712134
-22.8027150306
35.3257729361
34.4260773144
35.6189526167
-22.8038496505
-22.8414588649
-22.7991542861
-22.8628055899
41.8159545401
37.8902014636
40.3848331858
-22.9958539671
-23.0202660127
-23.0030998557
-23.0503419932
45.0220140983
42.8765233416
42.9607160913
-23.0497003161
-23.0676873883
-23.1141115887
-23.1385819953
43.9227199631
43.2210472559
43.2991608094
-23.10553362
-23.0725518901
-23.1519947702
-23.0862081859
44.567175156
43.8027135311
44.8539887852
-23.0320339022
-23.0401986463
-23.0075090865
-23.0202610961
45.4111577295
45.2251349043
45.8059421551
-23.0171986227
-23.0475583344
-22.9989850684
-23.0327064001
49.9285545178
45.4043807654
50.4659832194
-23.1096446951
-23.0545436656
-23.0984943979
-23.0487694328
24.8731006535
27.0781902416
-22.9865150865
-22.941423872
-22.9449242537
33.660681307
32.3125361401
34.7545419282
-22.8302709933
-22.8208949253
-22.8469612387
-22.8519469718
36.0048918176
35.8849237264
36.7238641187
-22.842308828
-22.8994946502
-22.8735208386
-22.9237224168
38.9034085305
37.3600883961
38.663021736
-23.0059843803
-23.0622590285
-23.0023457978
-23.0470857336
41.4957976052
40.5416455555
41.3799093219
-23.1134631144
-23.122830757
-23.0786749636
-23.062633933
43.1870323035
42.364277482
43.4576506904
-23.1194927794
-23.0394671497
-23.0561572206
-22.9887971663
45.3674002251
44.6182783111
45.906292938
-22.9686785403
-22.9725875271
-22.9296977022
-22.9394045442
46.3246213332
46.0804733667
46.9921152566
-22.963350514
-23.0021792195
-22.9424158961
-22.9884850004
51.0330910488
46.683777285
50.6025889921
-23.0752034184
-23.0340525601
-23.065692157
-23.0253685947
38.053354509
39.9498111875
-22.9709367654
-23.0076413397
-23.0439054529
-23.0609189135
40.2362007321
41.5985156851
43.3482539
-23.047728163
-23.0581749871
-23.054134538
-23.0038225514
42.5321606456
44.9104266716
45.3392418557
-23.0832150589
-23.05225297
-23.0457606755
-23.0199329612
44.7810014993
45.6974824016
46.7210239737
-22.9188085121
-22.9267128252
-22.937946619
-22.9095443895
46.6610385768
47.3279970902
47.5938144333
-22.8828574902
-22.8977702328
-22.8570248917
-22.8706052151
47.5598299359
47.0760945694
47.7724593722
-22.9281143254
-22.9731348552
-22.9190085377
-22.9610204446
50.131906861
47.2397184015
49.7622849399
-23.0582051748
-22.9937689764
-23.0437387028
-22.9818961131
48.3653448173
-22.8751384241
48.402465209
-22.8449675741
-22.8608144179
-22.8523875959
-22.86211762
48.0026361813
-22.9179568473
-22.9632147478
-22.9107927323
-22.9527916848
49.8973708259
-23.0566684346
-22.9903228856
-23.0522039098
-23.0008964807
1786.52665664
1787.45329992
620.134559155
624.423814695
1787.97222658
620.553073115
1785.58913012
1787.80662641
1790.31036149
624.865903879
622.089642577
1789.04023368
1789.5239306
621.14184176
1788.11569497
1788.4492349
631.656419181
628.788473208
1788.72980909
631.635923342
1787.92468494
1785.25318596
1779.72990296
632.766529663
630.389733542
1780.08596848
632.539670508
1785.01043138
1788.64485367
1790.36411253
629.128515925
631.440118851
1789.55676507
1789.00987144
631.714006468
1785.56274207
1780.33141799
630.047811543
631.54414776
1780.4076361
1785.60924233
632.172384867
1767.32238167
1773.45841067
622.783864607
626.627495308
1773.93333196
622.620536483
1766.83111092
1762.48652496
1759.74630218
617.904054293
615.577507823
1760.55201775
617.756577972
1761.868846
1767.5307503
1774.10837239
626.286949357
621.803427299
1774.1838557
1767.5889135
622.295671959
1762.90819368
1762.00328582
615.686258305
617.499851533
1761.33512929
1763.22636895
617.57956446
1764.92694022
1761.29550309
621.232113002
616.548884386
1761.99509084
620.99665599
1764.3189272
1768.74968749
1772.77192782
627.41342059
632.546150701
1773.07740137
626.944499517
1768.21491586
1765.52172715
1763.41049442
616.987076275
621.70107687
1762.71173011
1765.88977361
621.354325081
1769.16067046
1773.49913257
632.19629693
626.993747843
1773.33877852
1769.38635285
626.892937596
1781.92768691
1777.34107312
642.856592785
637.858181909
1777.50698772
642.174214732
1781.83999012
1785.45156346
1788.62886623
646.458233993
648.073965233
1788.46733263
645.687885044
1785.48572843
1781.88777739
1777.78667558
637.330128245
641.330623724
1777.67769051
1781.86832002
641.636335045
1785.38150617
1788.21966882
647.40563297
644.923563483
1788.29291253
1785.38669201
645.153761313
1792.29478098
1790.98052851
651.468069836
649.688008872
1790.67923457
650.615808588
1792.75462094
1793.71649457
1795.06749822
651.872783247
651.477589604
1794.60429335
651.06674208
1794.1797853
1791.74084078
1790.10349008
648.926902803
649.116386534
1790.32719528
1791.31323722
649.79975649
1793.04387964
1793.43761678
650.649340953
649.291573991
1794.02561947
1792.49510967
650.109085916
1795.12360255
1795.37612061
652.799487589
652.079805081
1795.01652026
652.231673791
1795.31599469
1794.85441847
1794.29156112
652.538592583
651.520121794
1794.23851296
652.124489696
1794.99072613
1794.88758877
1794.04992684
651.216747017
650.806475469
1794.60239228
1794.46099562
651.645925467
1794.6317016
1793.37832763
651.015963129
650.706093201
1793.93904554
1794.27674046
651.546936501
1792.54131831
1793.9614774
650.349829887
650.685806048
1793.69822579
649.7555606
1793.12462998
1791.25842897
1790.41744075
649.823089863
648.026390927
1788.58906928
648.757304463
1792.53397958
1791.27461
1792.06698386
650.065554028
647.873212993
1792.95049361
1790.04030535
648.944008352
1788.82589128
1783.76467103
645.767915417
646.012882605
1785.48061887
1787.26936478
647.361898259
1778.8704087
1786.68487717
655.256081086
648.594099675
1784.42405872
651.745117947
1781.48479401
1768.4937828
1776.33406871
662.649518332
613.83757058
656.518569003
1780.4286742
1772.2527434
1775.39996071
1779.2912062
645.054986773
645.712162391
1780.80747453
1774.19523957
647.55721664
1765.85206104
1788.6792173
619.888499175
650.377623501
1765.04727858
651.874468017
1785.00681126
1802.90305936
1806.11692025
619.726048531
621.31451348
1801.95221978
620.120120793
1806.28178346
1799.50677054
1794.47264788
618.372966943
619.24286985
1797.63457479
1796.95184239
619.300023918
1803.91660266
1807.26642955
621.168407013
620.648435157
1805.22625976
620.353324308
1806.53878468
1801.40534468
1801.66624429
620.333812906
620.539523725
1799.31532451
1803.31975648
620.060449326
1793.89034892
1792.40521185
620.743621069
620.29148965
1791.38376267
1795.0519823
622.035163914
1793.2708784
1791.40822149
623.452279419
627.249765754
1791.18638544
1792.77812261
624.663997965
1796.36605107
1800.19313003
621.440960984
624.465100308
1797.58214046
1798.95997304
623.242976189
1795.30076064
1795.50727157
628.158282234
627.084466789
1794.08123584
1797.45768344
625.819571644
1788.8127003
1790.89323647
630.889791795
629.713355797
1788.992074
1791.49626183
630.585666051
1784.69574972
1779.98391895
630.505829951
627.559015211
1785.30871425
1779.49144632
629.62739331
1788.6399707
1792.58784581
630.096482717
630.118445686
1792.01407702
1788.47341375
630.331638978
1784.08728881
1777.96151045
626.895273217
628.498946832
1778.79500184
1783.51054027
628.943105318
1767.46146577
1773.82260855
621.34642622
624.333946741
1767.50151253
1773.6282601
620.877981564
1763.69031614
1762.52293399
617.600218606
616.743386927
1763.42978679
1763.29417907
617.450895279
1767.46688588
1772.51760969
623.79462923
620.084750116
1773.19466725
1767.42793897
620.459015094
1764.20768415
1765.40644394
617.215332864
617.687147822
1764.28702401
1765.0552855
617.532343686
1766.97639486
1763.86821186
622.620429382
619.252623685
1766.27153554
1764.7531268
623.385935922
1770.12143525
1773.59954062
627.482753407
632.622794553
1769.59631075
1773.96023646
627.939287573
1767.94245486
1766.25528796
620.171020479
625.456158675
1765.76182408
1768.86991128
624.577312037
1771.19866335
1775.76709518
633.659958256
629.986606979
1774.84646654
1772.23061339
629.161657041
1782.19091037
1777.85578541
641.414865754
637.503769946
1781.94284279
1778.09982941
641.607459901
1785.59842998
1788.12721273
644.926926348
646.658856711
1785.44612218
1788.16159303
644.928457167
1782.76702053
1779.5852751
638.37049592
642.418416301
1778.80851803
1783.41075974
642.078703676
1785.93889141
1788.73796708
646.381438728
644.826632633
1788.35585094
1786.38560799
644.817245248
1790.99056431
1789.86595388
648.529823757
647.798254458
1790.97599408
1789.9007343
648.122060255
1791.97254009
1792.92220301
648.447760124
647.988623443
1792.09881173
1792.71739151
647.841219785
1791.11876695
1790.43291597
647.522475895
647.368128113
1790.10413417
1791.40557515
647.769573584
1791.98268647
1792.76418281
647.479991469
647.030623736
1792.57339991
1792.20290626
647.451818198
1793.54120501
1793.44720382
649.71325447
648.397204741
1793.93128189
1793.24543949
648.726725406
1793.04029367
1792.56075406
649.646681005
648.097548938
1793.67187021
1791.6892049
648.614955455
1793.04755115
1792.96589923
647.784289841
647.035069821
1793.00332558
1792.6804597
647.704837262
1792.30230174
1789.91408416
646.822073166
646.581898681
1790.76979847
1791.63238371
647.431450153
1787.43789843
1790.78593675
646.745202126
647.177750682
1788.5055791
1789.73930258
645.597589061
1784.82964682
1782.57227968
644.800672915
642.077682342
1785.70229985
1782.02049787
643.7652474
1786.58644037
1787.92536438
645.812216789
643.476697208
1788.80850298
1785.83525708
644.438807052
1784.23222365
1781.70583305
641.523000616
642.225504367
1781.77367689
1783.79711322
642.824002029
1774.81291926
1779.05118012
645.367884043
641.556236124
1774.82198391
1778.88120151
645.021879906
1766.74233398
1791.18302192
650.307299101
625.331273789
1766.78228485
650.007661788
1792.12548546
1775.57096499
1779.32364395
641.460224812
645.012081075
1779.06874627
1776.04065087
645.118093086
1768.19923136
1792.49610464
625.957777587
649.606914562
1768.86161988
650.223767454
1792.44787821
1807.50152936
1807.86279398
621.288366974
621.869300632
1806.4777848
621.966365461
1808.43355078
1806.64002718
1803.73089128
621.321980873
623.186651987
1805.03875089
1805.78247024
622.332726539
1808.21205183
1809.26993226
621.840052652
622.695923317
1808.915261
622.27628994
1808.80710615
1807.73139968
1808.8397756
624.408899139
623.830506119
1807.54816371
1808.73823858
623.190323361
1803.45642982
1802.55055829
625.793912859
624.917801545
1801.27159792
1804.84739151
627.167511704
1801.18278332
1796.79640058
628.320930918
630.906545907
1799.39505407
1797.9294418
629.640885398
1805.34089184
1808.53611705
626.416793842
630.284116358
1806.83813051
1807.04172759
628.619224906
1802.67380459
1799.64676839
631.700748704
632.296223346
1798.84862378
1803.97733648
630.861145786
1787.98414127
1793.0524651
629.924793089
631.148696282
1788.23924618
1793.4206497
629.961192356
1782.35670348
1777.2962169
627.963014541
625.01069587
1782.95169462
1776.71845754
627.540228365
1787.91361032
1794.1713412
631.419881764
630.093584183
1793.8016721
1788.02976092
629.946076041
1782.14737561
1777.06295896
624.979009395
627.632723369
1776.63677397
1782.34922914
627.42793222
1768.75392355
1772.17525959
620.140751233
622.480313922
1767.80872146
1772.14186533
620.396794142
1767.43923548
1766.41869339
618.00179808
619.904833045
1766.10598998
1767.67526086
618.642851462
1769.98521511
1773.32601005
622.76352702