/*--------------------------------*- C++ -*----------------------------------*\
| =========                 |                                                 |
| \\      /  F ield         | OpenFOAM: The Open Source CFD Toolbox           |
|  \\    /   O peration     | Version:  v1906                                 |
|   \\  /    A nd           | Web:      www.OpenFOAM.com                      |
|    \\/     M anipulation  |                                                 |
\*---------------------------------------------------------------------------*/
FoamFile
{
    version     2.0;
    format      ascii;
    class       volVectorField;
    location    "7.65";
    object      U;
}
// * * * * * * * * * * * * * * * * * * * * * * * * * * * * * * * * * * * * * //

dimensions      [0 1 -1 0 0 0 0];


internalField   nonuniform List<vector> 
28582
(
(0.814739249652 0.00313476003713 -0.00056146588429)
(0.815898992529 0.0013544197076 -0.000287377822357)
(0.815529660044 0.00344790615684 -0.000538356536662)
(0.816144596182 0.00170171774273 0.000254995229471)
(0.817284979792 0.00434152933913 -0.00147805551313)
(0.816805357974 0.00247949374982 0.000409744763757)
(0.819864716283 0.00712052958311 -0.00326275478009)
(0.8201494051 0.00492901651536 0.0026035029872)
(-0.1908022408 -0.0770117435015 0.0013154101695)
(-0.156012260141 -0.0688593667541 0.00930621644183)
(-0.518204372154 -0.17976706158 0.666428415055)
(0.820592827046 0.00606456662139 0.000847523271785)
(0.782200797432 0.000121661988651 -0.0096577412929)
(0.778416222868 -0.000484386395354 -0.00135244160866)
(0.817471640327 0.00316343957238 0.00327401586897)
(0.815597063796 0.00328683173022 0.00488371875837)
(0.776150976415 -0.00200752631867 0.0010635090675)
(0.813534907398 0.00441816326251 0.00660653579137)
(0.812464257061 0.00511198613157 0.00759877185296)
(0.813751684211 0.00594699421575 -0.00107899620009)
(0.816269502301 -0.000996767632556 -0.000310678885019)
(0.815096372998 -0.001837095002 -0.000521460837396)
(0.814146417591 0.00605298777216 -0.00242155278756)
(0.816148703991 -0.000758928136478 0.00033253024033)
(0.814963022957 -0.00187037537749 -0.000141090364486)
(0.815276261547 0.00665706235398 -0.00599464540609)
(0.815743053477 -0.000311961360023 0.000209627695177)
(0.815341757988 0.00717471088497 -0.0100624663974)
(0.816586430994 0.00189697753067 0.000724106925362)
(-0.134166287711 -0.0415370981858 -0.00522820622443)
(0.384171406516 0.541644317852 0.300087279391)
(-0.392852442635 -0.264502373877 -0.432420648722)
(0.821019507785 0.0055394625554 -0.0097828443087)
(0.81992646407 0.00685600079718 -0.00903132017127)
(0.778624636055 0.0060901283455 -0.0136229445029)
(0.781323590323 0.00611453569224 -0.0121516826224)
(0.818602593069 0.00869980755045 -0.0162780699137)
(0.814059005917 6.12291004617e-05 -0.00082870192677)
(0.814822362376 0.00245301653913 0.00237491045654)
(0.812137234838 0.000544464956308 7.04546818415e-05)
(0.812173052072 0.00322062292251 0.00498475334229)
(0.774540416644 -0.00634278202465 -0.00122308988353)
(0.811013442349 0.00396062346333 0.00589082017846)
(0.807354955192 0.00211006108067 0.00453104263955)
(-0.234789789465 -0.108237259065 0.0147019841186)
(-0.055745800487 -0.0867828645201 0.0129341968065)
(-0.158818525523 -0.0400580009592 -0.174225728938)
(-0.198459322214 0.0704511325031 -0.103892224763)
(-0.204642988287 -0.10312511167 0.0173459986412)
(-0.0978802727094 0.10575209981 -0.133125051894)
(0.822830487369 0.00992566363369 -0.0103147602251)
(0.822560432033 0.00947267533175 -0.00329029359338)
(0.781394559141 0.00020812729271 -0.00656675205227)
(0.781114851573 0.00138753225677 -0.00757419601007)
(0.822319455876 0.01024372141 -0.00863381157639)
(0.780052642933 0.0012010708936 -0.0043738547785)
(0.823458995958 0.00925385619053 -0.00557385251967)
(0.821246925011 0.00860553615799 -0.00144697034087)
(0.821045808719 0.00782637668215 0.00108807460553)
(0.781019370892 -5.02731163993e-05 -0.00442265845505)
(0.776558538042 -0.00069033562956 0.00161988298584)
(0.820369937369 0.00815117205473 0.0033457843019)
(0.779710779823 0.000171440014523 -0.00176124033853)
(0.821865082845 0.00832178995748 -0.00369335805496)
(0.817433156289 0.00622049741372 0.00658829299685)
(0.820027553191 0.00691784162322 0.00186224734592)
(0.77409657026 -0.00296295110605 0.00215123947478)
(0.774327591619 -0.00202448124199 0.00355928799477)
(0.819126833197 0.00717365279929 0.00399554839292)
(0.772576007609 -0.00293702388001 0.00486023187081)
(0.818325098735 0.00616407947793 0.00466587332831)
(0.814822147815 0.00423551449697 0.00499930265079)
(0.771607830064 -0.00535487737662 0.00322566329287)
(0.77018347317 -0.00419009443028 0.00500233110258)
(0.815949363886 0.00567341524897 0.00570888997354)
(0.772170594889 -0.00413579138115 0.00265801430876)
(0.770809883257 -0.00333604520435 0.00522441498968)
(0.816812820977 0.00550024461627 0.0039404796155)
(0.811477559082 0.004947384177 0.0098303035162)
(0.769870953245 -0.0034096625231 0.00449787070057)
(0.76924875103 -0.00213894077175 0.00808056129869)
(0.814991921054 0.00605554282785 0.00701612062462)
(0.769449978346 -0.00174549204272 0.00854497456442)
(0.81426870602 0.00580314194057 0.009288364586)
(0.770527846803 -0.00294272600699 0.00508880795101)
(-0.143376330616 -0.000757917119019 -0.0183311942238)
(0.0139925239398 0.188370980977 0.142680618607)
(-0.0670397403677 0.0253676537207 -0.0211113298759)
(-0.188051529826 0.0240710598891 -0.0168571408973)
(0.0292346455744 0.159936714654 0.192973757491)
(-0.0668542131378 0.211183080057 0.132617124965)
(0.000178142218725 -0.0978196376192 0.000240175198783)
(-0.21918920402 -0.0210755601681 -0.026845265696)
(-0.222830095059 -0.0427950957242 0.0601102024693)
(0.0534952434457 -0.107086726648 -0.00372480576541)
(-0.165505615178 -0.0324110744865 0.0300399613785)
(-0.102572868817 -0.0425355937162 -0.00811892169967)
(-0.108926441742 -0.0543255475294 0.0950371029899)
(0.81728413912 0.00709475348616 -0.0197483013489)
(0.813911543604 0.00709282423606 -0.0177869763502)
(0.779498524165 0.00620342781203 -0.0140955690333)
(0.778173838688 0.00299366847419 -0.0137911544067)
(0.817894521132 0.00632954195819 -0.0195504737272)
(0.813349876534 0.00766484717147 -0.0178176391625)
(0.778947879233 0.00338179194547 -0.0144942657686)
(0.819350877807 0.00662924340381 -0.0174033751659)
(0.823676765199 0.00505070776428 -0.0161452800431)
(0.780742211992 0.00607520074935 -0.0136846997046)
(0.780496042688 0.00399701779347 -0.0127932062293)
(0.820199396737 0.00567834348399 -0.0171273132068)
(0.822879436667 0.00618333938052 -0.0165789450706)
(0.779945308282 0.0036352450775 -0.0139948948741)
(0.779955095128 0.000141415813874 -0.0134758570289)
(0.780620085423 0.000672532544612 -0.012678399346)
(0.82246665263 0.00873661703002 -0.0155231100573)
(0.818820230559 0.00781430372794 -0.0165916051388)
(0.780898280065 0.00167879531376 -0.0125368922527)
(0.822647175024 0.007543762053 -0.0156907338078)
(0.780260592093 0.00113576615922 -0.0134581193125)
(0.813352064203 0.00319604171998 0.00361889301527)
(0.771496752621 -0.00650319524169 0.00289027741661)
(0.770459343644 -0.00451172228482 0.00435288651998)
(0.811007949758 0.00246589829724 0.00325715174571)
(0.772204390068 -0.00714118663088 0.00164621612986)
(0.812058713516 0.00239313832643 0.00211535967615)
(0.771632392108 -0.00459951205008 0.00311785090962)
(0.810063441465 0.00121468556684 0.0019706520659)
(0.811127622992 0.000256844416582 -0.001691599168)
(0.773187512836 -0.00692973803582 0.000664473116799)
(0.774231769488 -0.00417936212776 -0.000667756103902)
(0.811230505777 0.00123251450838 0.000928345700727)
(0.809842815954 -6.35000832258e-05 -0.00121458178165)
(0.772888430771 -0.00457050367432 0.00201490499497)
(0.808705716195 0.00339911162439 0.00634510287576)
(0.810086156011 0.00403819085605 0.00780352054164)
(0.770180248246 -0.0036086450583 0.00378675263282)
(0.76960493706 -0.00233755245301 0.00710204386675)
(0.771017421912 -0.00233480006989 0.00605561820999)
(0.809719147812 0.00324428107636 0.00425372512196)
(0.771341682863 -0.00360763012573 0.00246770515433)
(0.772523012706 -0.00279346496648 0.00473723272192)
(0.774200984436 -0.00311494804394 0.000677358022672)
(0.806958938773 0.00127572460596 0.000138047577716)
(0.80858853483 0.00202180642405 0.00244982704971)
(0.774302531288 -0.00374094268019 -0.00218903894656)
(0.808229948459 0.000768607318117 -0.00130667675316)
(0.772898818837 -0.00373959264591 0.00122663747753)
(0.8148647629 -0.00217332750755 -0.00149156081542)
(0.813594596342 -0.00195943668604 -0.00269913266697)
(-0.0840341967367 -0.0386677544033 -0.012742302614)
(-0.0834898331781 -0.180875824828 -0.455817959478)
(0.820821472077 0.00619978377577 -0.00536510191543)
(0.781703537075 0.00105400564444 -0.0112011256503)
(0.811674715904 -0.00134555106416 -0.00274308223539)
(0.812531448629 -0.00290345715922 -0.00398113282066)
(0.775390666482 -0.00594717329145 -0.00222564082498)
(0.774952273844 -0.00393832792865 -0.001745923339)
(0.774816633544 -0.00710350120588 -0.00781920751921)
(0.813994336168 -0.00349268826234 -0.00353196496876)
(0.815853709364 -0.00429117341351 -0.00228758380864)
(0.773767986253 -0.0084260112825 -0.00827060066881)
(0.769943117901 -0.0107504099106 -0.0049967990184)
(-0.195530502316 -0.0599432187948 -0.00311895278437)
(0.038856613373 -0.105634832736 -0.00811375436585)
(0.0381352467608 -0.100995775827 -0.0068749967977)
(-0.0429172773072 -0.0372103195853 0.08616660376)
(-0.0996877616081 0.00298879328646 0.0819018882937)
(-0.0647796978748 -0.00787785842526 0.146520030736)
(-0.00836430845152 -0.0780091153849 -0.00491153184451)
(-0.0667450086913 -0.0483728821298 4.05696640629e-05)
(0.824458442872 0.00700145142183 -0.00975593321938)
(0.823025686447 0.00861573146 -0.0127668245074)
(0.782083536219 0.00188903625854 -0.0114976489555)
(0.780868583298 0.00141694231426 -0.00881048702575)
(0.823325930183 0.00712164556683 -0.0129683810248)
(0.781772126291 0.00213602052441 -0.00961254443649)
(0.82388646978 0.00836989427863 -0.00890067562044)
(0.810473680173 -0.0031658353331 -0.00405707488376)
(0.811376067657 -0.00108911492389 -0.00200546443859)
(0.775800068996 -0.00519679879701 -0.00260754877583)
(0.774945634245 -0.00404093477543 -0.00181859643599)
(0.811856165247 -0.00230786431933 -0.003627655872)
(0.810044651891 -0.00169098172417 -0.00178118833143)
(0.775478371323 -0.00364571836812 -0.00270635808765)
(0.808944180233 -0.00241709926464 -0.00547573419149)
(0.806996793381 5.29970442556e-05 -0.00161477947969)
(0.775095168839 -0.00381011922016 -0.0036645012942)
(0.775476424013 -0.00464472603889 -0.00468681045979)
(0.808413856389 -0.000902783275026 -0.00232733917237)
(0.775366049675 -0.00382006950253 -0.00569571906291)
(0.807607483727 -0.00131852372551 -0.00576404993192)
(0.809808895235 -0.00359753119377 -0.00597884267742)
(0.810865769774 -0.00326101888103 -0.00926824430115)
(0.775087147742 -0.00507544613161 -0.00749077653708)
(0.775462726933 -0.00602324992487 -0.00670060125323)
(0.811319292165 -0.0046301291403 -0.00804545533868)
(0.775411075066 -0.00449536972379 -0.00657096019246)
(0.808810844525 -0.00213394660711 -0.00679666487406)
(0.813783452633 -0.00524966852679 -0.00801260998403)
(0.81197937334 -0.00351060380325 -0.0090419332653)
(0.774120360612 -0.00609254777847 -0.00788025553129)
(0.772228618653 -0.00957162088166 -0.0077064554641)
(0.812375783642 -0.00495199152395 -0.00797158704397)
(0.772661323771 -0.00705273934733 -0.00705617678988)
(0.81366364194 -0.0039568175164 -0.00900856980847)
(0.814831054665 -0.00543783589616 -0.00704406862702)
(0.815684792752 -0.00430189669835 -0.00591541972828)
(0.770280597457 -0.00878484976172 -0.00476919439352)
(0.771136862906 -0.0104511780865 -0.006931206293)
(0.815738911261 -0.00538162553172 -0.00560450906388)
(0.771583383835 -0.00812403902444 -0.00665717698542)
(0.814945255258 -0.00430434208803 -0.00752419827656)
(0.791410560244 0.0111359677018 0.00175122301864)
(0.798019431846 0.0119505428326 -0.000391906474451)
(0.800667927295 0.017246495018 -0.000990100055024)
(0.802186509792 0.010387552827 -0.00148439174368)
(0.216397686319 0.0671216483903 0.00576004184157)
(0.347574735879 0.0512008739356 0.00446444139638)
(0.262051243134 0.0218366401984 0.00150640406751)
(0.442672024461 0.04818019683 0.000374053733055)
(0.42167021543 0.0795989020711 -0.000263969329125)
(0.269335078497 -0.00685135739784 -0.344661668773)
(0.364344558722 -0.0480197505621 0.472830183371)
(0.178581929624 -0.0271492229039 -0.297420780001)
(0.409928374005 -0.146510767454 0.082011527525)
(0.137111473417 -0.0156867572933 -0.27556083056)
(0.378781528789 -0.0714985524951 -0.129064396149)
(0.788831871255 0.00251964574716 0.00109800153075)
(0.790038326654 0.00516070339005 0.00142343405351)
(0.785357007971 -0.000309294645068 0.00122836889711)
(0.786199949369 0.00353085082705 0.000782997849407)
(0.787716917434 0.0076324454575 0.00378346426001)
(0.785282160004 0.00432393542556 0.000860591146941)
(0.79192242161 0.0075080832469 0.00179341062647)
(0.794768840801 0.00930974939451 0.001367567403)
(0.786951675912 0.00408979341989 0.000660468950685)
(0.788132150544 0.00613867327415 -0.000259089868132)
(0.790662707856 0.0147069945266 0.00453246352673)
(0.79510174946 0.0120403177957 0.000712490412303)
(0.795388562808 0.0162159833421 0.00166243891491)
(0.786440591324 0.00489709748123 0.000775367863655)
(0.782256143677 0.00935967482645 0.000272003042358)
(0.788138693272 0.00627357362788 -0.00028151049614)
(0.786720409005 0.00670145842558 3.26779625273e-05)
(0.797857219062 0.0202669603739 0.00160032699605)
(0.800268145924 0.0243788472872 0.00261194614369)
(0.78114235543 0.0114749210015 0.000370718512951)
(0.783012701789 0.0155184423893 -0.00101939600681)
(0.78591678437 0.00726002936085 0.000209354979786)
(0.78511993589 0.00946724530262 -0.000819066222945)
(0.79858566064 0.0146279361601 0.000194676401818)
(0.800415901538 0.0119293333256 -0.000169631658997)
(0.788295612682 0.00554923847159 -6.88896225179e-05)
(0.787123560018 0.00602670874137 0.0010589772095)
(0.78832019693 0.0077577492265 0.00264009244696)
(0.802600038403 0.0190340734534 -0.000478596476537)
(0.801720045402 0.0136279955426 -0.00103008099309)
(0.803323092578 0.0141887294675 -0.000721643511988)
(0.786609251956 0.00642534019412 0.00139233553163)
(0.785701588106 0.00904499229069 0.00148145836556)
(0.788141505085 0.00816542191617 0.00318434836413)
(0.786894549151 0.00929588785208 0.00291714240536)
(0.788428037743 0.00901619368764 0.00288049314715)
(0.787125770549 0.010250890262 0.002700185899)
(0.194404639158 -0.049402421624 0.00189479210255)
(0.194359523541 0.00723195634597 0.00227022564487)
(0.252352268866 0.0205938485526 0.0063837668429)
(0.212371378193 -0.0467904649326 -0.26292649056)
(0.325655005942 -0.0122662440603 -0.309674166588)
(0.228335985815 -0.0388135985453 -0.225879245981)
(0.350002519642 -0.0186347222573 -0.270370492554)
(0.322442799289 0.0272962265397 -0.257063112086)
(0.179482081345 0.0497415455995 -0.0605774740934)
(0.348169102847 -0.0229589097453 -0.167783861095)
(0.24279329185 -0.00836671470196 -0.0652353030939)
(0.154732987599 0.0472482369178 -3.76755048362e-05)
(0.140079670309 0.0321508154209 -0.00124803755583)
(0.308830260337 0.0789367968101 0.00640446418592)
(0.224442649177 0.0431206314423 0.00284547409816)
(0.334101046206 0.0548987683591 0.00553221952364)
(0.208583538693 -0.0442003381419 -0.137417416421)
(0.315776517466 -0.0359674808657 -0.154239652874)
(0.196210657359 -0.0322259368971 -0.108081117177)
(0.303871297993 -0.0188014522497 -0.138827627425)
(0.369619571415 0.0253150884377 -0.00102764460934)
(0.424270721932 0.0491564427983 0.00596598713666)
(0.477366135693 0.0354536943832 4.98195777946e-05)
(0.339580881241 -0.0503565048061 -0.0711582802277)
(0.298651042852 -0.0393124005644 -0.0242487008835)
(0.33058379115 -0.0379657777776 -0.128332066692)
(0.310832036719 -0.0542322821732 -0.0201052998126)
(0.353505646986 0.0401260986035 0.00148199822432)
(0.357889666049 0.0425741358518 0.000324732091756)
(0.183982591936 -0.0291948529609 -0.1334575263)
(0.257612946968 -0.0270669613209 -0.148583065853)
(0.252938188564 -0.0135229634266 -0.172635817009)
(0.498718053451 0.0425447376921 -0.000951624693852)
(0.441746618747 0.0553955516012 -0.000816406458432)
(0.498250281176 0.0505251198762 -0.00119246754765)
(0.33264280159 -0.0462869255062 -0.127226937284)
(0.336778622969 -0.0458936392027 -0.0885562408922)
(0.337477328466 -0.0233273108244 -0.160990894681)
(0.354689773001 -0.0187794352262 -0.117062778741)
(0.794452398317 0.00298634702168 0.00247973374753)
(0.79337044021 0.00238472631068 0.002822174647)
(0.785675851638 -0.000290009540995 0.00109707299742)
(0.785344352965 0.00146329983904 0.00145578346612)
(0.793658380508 0.00365826139975 0.00287926042149)
(0.785671524601 0.00144789507159 0.00144403949049)
(0.794138999935 0.00231046174134 0.00207742974928)
(0.795055320377 0.00382279125166 0.00268038659863)
(0.794925955864 0.00580813395338 0.00273387475321)
(0.78561488882 0.00205121068308 0.00125420440935)
(0.78641230216 0.00323363301 0.000869931129935)
(0.794137572918 0.00484277850012 0.00275881794809)
(0.795670588848 0.00497648714716 0.00188697023183)
(0.785926809982 0.00197778611777 0.00139840798578)
(0.792492240811 0.00680559318329 0.00414474994726)
(0.793832799161 0.00715590431788 0.00284187956243)
(0.784662073446 0.00254664460863 0.00118051346116)
(0.783834028316 0.00537923017901 0.00123293295799)
(0.792690649758 0.00533822427564 0.00356841317398)
(0.793713120757 0.00814460001116 0.00432497084831)
(0.782886183861 0.0031796072326 0.00144256624562)
(0.797463172882 0.00660306348278 0.00131419344798)
(0.79581335709 0.00694359794389 0.0022669822033)
(0.786970444209 0.00379104143056 0.000698970733933)
(0.78763908669 0.00556394502764 0.000498093650878)
(0.796620851818 0.00595631582392 0.00135953048506)
(0.796954777466 0.00772323112397 0.00201800967169)
(0.787377317109 0.00499843087712 0.000698143055876)
(0.79851634577 0.00753316620508 3.40569433858e-05)
(0.799417442869 0.00948730042721 0.000265908687715)
(0.787792296546 0.00547773266222 -0.000307053912619)
(0.787690889021 0.0058091614743 -0.000298087159803)
(0.798217321424 0.00877276452346 0.000652330698381)
(0.799462797999 0.00841130345814 -0.000326108879856)
(0.787466711732 0.00505988543447 -0.000303183489123)
(0.795889405483 0.0107664578703 0.00172428671622)
(0.795054898562 0.00832179580471 0.00186340816321)
(0.785060121971 0.00595084477492 -0.000260004471486)
(0.787300394479 0.00593974067945 0.000235644682696)
(0.794622027147 0.0096726056981 0.00224595316292)
(0.796268409556 0.00914343537396 0.00126221057145)
(0.786353386866 0.00647925767826 -0.000620884069494)
(0.795808704079 0.0124475018422 0.000654019119321)
(0.79392704054 0.0123976410501 0.00248270299401)
(0.783468193555 0.00743428445701 0.000243090733989)
(0.784022144359 0.00873064139247 -0.00110890684456)
(0.794398064559 0.0107703094316 0.00175893716177)
(0.795786166349 0.0143462312381 0.00132954323133)
(0.784824216508 0.00757726001029 -0.000887054891743)
(0.797696952396 0.0119661113193 0.000187271942345)
(0.799393809514 0.0109581446315 -0.00026103746154)
(0.787735659679 0.00568252736238 -0.00045194277989)
(0.787986600646 0.00637828717114 -9.02548343069e-05)
(0.797963323622 0.0102228234838 -0.000181864738479)
(0.799393177329 0.0125036209094 0.00065158046555)
(0.787290403188 0.00599662290512 -0.000780417338487)
(0.797953593922 0.0137562644305 -0.000541264860796)
(0.799596926092 0.0159717658071 0.000529538933526)
(0.785448350744 0.00783687532248 -0.00101747937333)
(0.787339531888 0.00648778357006 3.38760127376e-05)
(0.797728700717 0.0157310635245 -0.000427622910399)
(0.799471545247 0.0141354910624 0.000221612670479)
(0.78636865196 0.0068615612586 -0.000750574580087)
(0.797307825451 0.0188861171845 0.0011642679461)
(0.794013024725 0.0144256567551 0.00205055432723)
(0.781189890817 0.0132959641259 -0.000376817662852)
(0.782861403086 0.0102752818342 -0.000369564880183)
(0.794520745715 0.0174157523071 0.00215828440212)
(0.796576484865 0.0163659477462 0.000702928454066)
(0.782489963684 0.0118426308819 -0.000823526439042)
(0.79930419039 0.0211425702989 1.00769676558e-05)
(0.799969377825 0.0222920982 0.0028036180212)
(0.781918151872 0.0147441052162 -0.000945713660159)
(0.78347779754 0.0134539026098 -0.00136738972756)
(0.796789574162 0.0199958812831 0.00141488469327)
(0.782670127251 0.0127696415912 -0.00103919398985)
(0.801983224376 0.0226857628586 0.00132511029516)
(0.799338536415 0.0194036387715 -0.000909881625222)
(0.800266975029 0.0175347598904 2.89550720865e-05)
(0.784582273751 0.00912732767362 -0.000817035868584)
(0.785166496785 0.00796505415552 -3.10944967864e-05)
(0.798604631561 0.017515252049 -0.000794807799605)
(0.800998011306 0.0191634976712 -5.30977407053e-05)
(0.783945096107 0.0104359272455 -0.000958840649496)
(0.801082818826 0.0211706135611 -0.00184495277093)
(0.804045364819 0.0214282981015 -0.00100881388962)
(0.784282143137 0.0120626246436 -0.0019966097145)
(0.784900399859 0.00882026818371 -1.52355487649e-05)
(0.802401229017 0.0206453620659 -0.00107314320403)
(0.783820916926 0.0114863517327 -0.00109666205888)
(0.803269189972 0.0223151717389 -0.00167566059809)
(0.802111278623 0.0122153541783 0.00113233316845)
(0.800645539245 0.0113909765884 -0.000156299402734)
(0.788005704884 0.00552457777822 0.000298593030177)
(0.788457879431 0.00608937394614 0.000629645379858)
(0.800941937052 0.012651413424 0.00066842470661)
(0.801690399356 0.0111590756552 0.000325407732476)
(0.788354980363 0.00624774890094 0.000895604921312)
(0.802337096626 0.0133530896071 0.000876271692605)
(0.801340307778 0.0157090929957 0.000700972056681)
(0.78738554647 0.00574309147435 0.000891793618836)
(0.78765336447 0.00671536331952 0.00196256899539)
(0.801119428449 0.0141405190324 0.000398611336428)
(0.802579766224 0.0145435209022 0.00148187588784)
(0.787842618009 0.00647011817687 0.00153885337331)
(0.803226284476 0.0120897704737 0.00132943516732)
(0.804229204838 0.0113646659297 0.00190831288796)
(0.787870638437 0.00685646816896 0.00234434621529)
(0.788449129529 0.00723098726833 0.00219746335544)
(0.803490670673 0.0129452849821 0.00182474586106)
(0.803920664084 0.0107906544628 0.00135718865779)
(0.788029308202 0.0063754225884 0.0019920906953)
(0.803296872156 0.0165360768233 0.00113560697584)
(0.801819486587 0.0170590729536 0.000395096073766)
(0.786215963691 0.00726069244339 0.00153082132416)
(0.787231886123 0.00694271619444 0.00216973067966)
(0.802452857113 0.0183277306487 0.000371693639032)
(0.802834588222 0.0156368708557 0.000929281384953)
(0.786904301992 0.00749474079076 0.0022662578652)
(0.803971840737 0.017298912735 0.000612598046458)
(0.804761382148 0.0197407143822 -0.000104218278624)
(0.78557868844 0.00793115047468 0.00164156925857)
(0.78613004735 0.00893416774148 0.00257333805527)
(0.803470658469 0.0193661012149 -0.000216202798222)
(0.786525684934 0.00807153487692 0.00244814912583)
(0.805041959418 0.0173652786418 0.000784186542959)
(0.803943342684 0.0146262933335 0.00169756399642)
(0.804245812575 0.0121088718101 0.00182921686913)
(0.787722729615 0.00735313833911 0.00271625059865)
(0.787936027937 0.008596860288 0.00314495427063)
(0.803616452287 0.0138822569718 0.00156171133745)
(0.804396943027 0.0126406648566 0.00197611540017)
(0.787567260814 0.00802432041485 0.00278145729362)
(0.804320644995 0.015303369778 0.00125987612054)
(0.805103133416 0.0131993829387 0.00128418346431)
(0.786529922975 0.00940445391034 0.00287210495024)
(0.787530982414 0.0087425872457 0.00312695162593)
(0.804593766295 0.0131878285688 0.0014548956001)
(0.787156852967 0.00866685896645 0.00289281512142)
(0.805076770719 0.0152545569893 0.00109581262492)
(0.804919920747 0.00883116552154 0.00100610996817)
(0.804538653062 0.0101140383465 0.00184673585881)
(0.788189466231 0.00951781057247 0.00285711410382)
(0.788683467813 0.0095138411602 0.00212155676514)
(0.804639670418 0.0105271985584 0.00186681220616)
(0.804839558346 0.00843933072194 0.000899501188537)
(0.788303163063 0.00996409099924 0.00219398676397)
(0.805137059454 0.0111405583768 0.00113513053274)
(0.787700844507 0.00986324061822 0.00273262758773)
(0.804744867651 0.0110020695749 0.00134771115515)
(0.816869214488 0.00338217893952 -0.000853621198311)
(0.818194988478 0.0013245637967 -0.000497118658248)
(0.818219401232 -0.000881651703076 -0.000391168208685)
(0.814946763394 -0.00380441627887 -0.000407582409461)
(0.81021389475 -0.00520325899318 -0.000177162272916)
(0.824341515111 -0.0434931391802 5.79217825636e-05)
(0.81762920519 0.00347027440977 -0.0013420631891)
(0.818554767177 0.00154040692453 -0.000116614325217)
(0.818378418846 -0.000432636854215 9.69381124005e-05)
(0.815180420625 -0.00399817002049 0.000269734292607)
(0.810760934939 -0.00563891376677 0.00183138192181)
(0.825814933819 -0.045586120646 0.00263123312903)
(0.816019385991 0.00578437581876 -0.000663035809268)
(0.812849114754 0.00589631488454 0.00028802504055)
(0.791360555524 0.0099537272207 0.00214746639774)
(0.788016573801 0.00994112113614 0.00135752202702)
(0.785505938811 0.0110267872892 0.00301663008481)
(0.780683202636 0.00847475368371 0.0067268721747)
(0.785061669471 0.00800491537348 0.00475294188306)
(0.740458666518 -0.0294824359342 0.0263106428946)
(0.825886232803 0.00455857264602 0.000307196202961)
(0.823865770801 0.00265525070371 5.80293263765e-05)
(0.82142891016 -0.000707343398789 -0.000762437822357)
(0.819125963009 -0.00266563961059 -0.00221611602822)
(0.818756238778 -0.00433293152373 -0.00319001515133)
(0.818750943105 -0.00738774918131 -0.000646963488541)
(0.813339743314 -0.00590232115125 0.00341977270351)
(0.818799882666 -0.0769972215175 0.0113569472121)
(0.819908429837 0.00535653739127 -0.00130840536819)
(0.822915714171 0.00313987141708 -0.000770299436098)
(0.822802609777 0.00191442356615 -0.00101688157401)
(0.82154490759 0.000536830416325 -0.00135274988289)
(0.82029259252 -0.000934964915376 -0.00152261872429)
(0.820625734877 -0.00480558383619 -0.000191431187122)
(0.814253173166 -0.0066123526756 0.00205424972254)
(0.824557085989 -0.0618937545811 0.00476929002081)
(0.816362089176 0.00647794656563 -0.00113474687162)
(0.819532942686 0.00265701529315 -0.000557174649913)
(0.820025630563 0.000264753923424 -0.000524496910107)
(0.819555951078 -0.00196715415714 -0.000675013564155)
(0.818073318351 -0.00293110019833 -0.00096849627752)
(0.818270146185 -0.00563112696324 -0.000586547871811)
(0.812723245421 -0.00722035527453 0.000472073169484)
(0.825393006623 -0.0644649709243 0.00160455408814)
(0.816432172654 -0.00171739871388 -0.000453288008132)
(0.816353111258 -0.00412920732112 -0.000216036812779)
(0.811302082627 -0.0058240594406 0.000151711739866)
(0.826229063488 -0.0496831812276 0.000444132090678)
(0.639069957508 0.0418159172174 0.00898054119686)
(0.637520232795 0.0393922415617 0.0137992832624)
(0.649324076167 0.0229202377439 0.0176630106837)
(0.648862452306 0.0197654495235 0.0167557014661)
(0.649228865391 0.0208468053217 0.0184605396262)
(0.646474900283 0.0189278540792 0.024746726372)
(0.691633174826 0.0221837484705 0.0240666443359)
(0.529702390733 -0.070659340648 0.0490104251516)
(0.773249568197 0.0131445337228 0.00558537760396)
(0.770506736509 0.00854784984884 0.00739670282374)
(0.778859633179 0.00111018683368 0.0118629493252)
(0.775683526622 -0.000957376886063 0.0129592857266)
(0.775911385527 -0.00155141994042 0.0150648863102)
(0.780413847359 -0.00598315066574 0.0170815311098)
(0.791470120417 0.000271235342762 0.0218022009475)
(0.794242288959 -0.133841275057 0.0299292903205)
(0.821476602739 0.00602694777567 -0.00219480983301)
(0.823465813651 0.00388813793555 -0.0012897574408)
(0.822870561933 0.002765695736 0.000672685912931)
(0.821358820757 0.00277834626037 0.000982932793881)
(0.820943023364 0.00192192441759 0.00138562363636)
(0.822778868771 -0.00211461090601 0.00157483108025)
(0.818410809373 -0.00544911764277 0.00559310348655)
(0.840204655325 -0.0879468851808 0.00998367222017)
(0.817003852375 0.00610534488583 -0.00252683751323)
(0.820230859234 0.00296950174756 -0.00129714782065)
(0.820125996956 0.00105427429334 0.000349522401392)
(0.819449369488 -0.00137975309282 0.000602899159406)
(0.818221771684 -0.00310001198929 0.000670105403545)
(0.819418418427 -0.00666250650575 0.00159474336043)
(0.814717434731 -0.00868180364713 0.00434094433937)
(0.831375484569 -0.0741017728206 0.00647442128625)
(0.816553505505 -0.00150002885872 6.62195449792e-05)
(0.816971871958 -0.00392354120223 0.000661069236267)
(0.812041393103 -0.00606027618959 0.00256983005925)
(0.82865343577 -0.0563180514252 0.00363199799179)
(0.63489917376 -0.0156115822957 0.014342527241)
(0.632652742753 -0.0161573629071 0.0175228333127)
(0.642455770023 -0.0215766780596 0.0229938384435)
(0.638900683114 -0.0212057306973 0.0230572941166)
(0.639061150009 -0.0214129725638 0.0243119657974)
(0.638935430202 -0.0207648948246 0.0257017103876)
(0.691009238392 -0.00833565000803 0.031484777265)
(0.542176769688 -0.166825133884 -9.0807376856e-05)
(0.734161791833 0.00557624768567 0.0182817220228)
(0.735674021992 -0.000641419542444 0.0204499235031)
(0.788556651293 -0.00292642094155 0.0103482121688)
(0.785363917988 -0.003120430703 0.0111665262864)
(0.783662038767 -0.00496916789713 0.0108892378387)
(0.787915833193 -0.00701191703588 0.00940449624827)
(0.801974626319 -0.000681209443611 0.00747110370474)
(0.822267142531 -0.144759176392 0.000634134718937)
(0.82276235144 0.00506545508207 -0.0056653386777)
(0.82640127641 0.00356553877471 -0.0026163753645)
(0.825330666685 -0.000328863455061 -8.23643661535e-05)
(0.822081249958 -0.00277760720065 0.000520453702617)
(0.820893644755 -0.00435447084753 -8.16256004781e-05)
(0.824499930525 -0.00733092442037 -0.000677598653956)
(0.821916726466 -0.0112434537828 -0.00120419020273)
(0.856475960615 -0.109662493238 -0.00271715750425)
(0.81136999019 0.0095457078186 -0.00565352588389)
(0.81835840755 0.00616688010495 -0.00575257995676)
(0.822358298925 0.00248392835148 -0.00288577994493)
(0.821908528298 -0.000219777685176 -0.000248411801109)
(0.820638765601 -0.00241353238223 0.000495385794362)
(0.818801768765 -0.00455671419044 6.07878515138e-05)
(0.820877397485 -0.00721390093876 -0.00024454114381)