/*--------------------------------*- C++ -*----------------------------------*\
| =========                 |                                                 |
| \\      /  F ield         | OpenFOAM: The Open Source CFD Toolbox           |
|  \\    /   O peration     | Version:  v1906                                 |
|   \\  /    A nd           | Web:      www.OpenFOAM.com                      |
|    \\/     M anipulation  |                                                 |
\*---------------------------------------------------------------------------*/
FoamFile
{
    version     2.0;
    format      ascii;
    class       volVectorField;
    location    "10.3";
    object      force.turbine;
}
// * * * * * * * * * * * * * * * * * * * * * * * * * * * * * * * * * * * * * //

dimensions      [1 -2 -2 0 0 0 0];


internalField   nonuniform List<vector> 
28582
(
(0 0 0)
(0 0 0)
(0 0 0)
(0 0 0)
(0 0 0)
(0 0 0)
(0 0 0)
(0 0 0)
(0 0 0)
(0 0 0)
(0 0 0)
(0 0 0)
(0 0 0)
(0 0 0)
(0 0 0)
(0 0 0)
(0 0 0)
(0 0 0)
(0 0 0)
(0 0 0)
(0 0 0)
(0 0 0)
(0 0 0)
(0 0 0)
(0 0 0)
(0 0 0)
(0 0 0)
(0 0 0)
(0 0 0)
(0 0 0)
(0 0 0)
(0 0 0)
(0 0 0)
(0 0 0)
(0 0 0)
(0 0 0)
(0 0 0)
(0 0 0)
(0 0 0)
(0 0 0)
(0 0 0)
(0 0 0)
(0 0 0)
(0 0 0)
(0 0 0)
(0 0 0)
(0 0 0)
(0 0 0)
(0 0 0)
(0 0 0)
(0 0 0)
(0 0 0)
(0 0 0)
(0 0 0)
(0 0 0)
(0 0 0)
(0 0 0)
(0 0 0)
(0 0 0)
(0 0 0)
(0 0 0)
(0 0 0)
(0 0 0)
(0 0 0)
(0 0 0)
(0 0 0)
(0 0 0)
(0 0 0)
(0 0 0)
(0 0 0)
(0 0 0)
(0 0 0)
(0 0 0)
(0 0 0)
(0 0 0)
(0 0 0)
(0 0 0)
(0 0 0)
(0 0 0)
(0 0 0)
(0 0 0)
(0 0 0)
(0 0 0)
(0 0 0)
(0 0 0)
(0 0 0)
(0 0 0)
(0 0 0)
(0 0 0)
(0 0 0)
(0 0 0)
(0 0 0)
(0 0 0)
(0 0 0)
(0 0 0)
(0 0 0)
(0 0 0)
(0 0 0)
(0 0 0)
(0 0 0)
(0 0 0)
(0 0 0)
(0 0 0)
(0 0 0)
(0 0 0)
(0 0 0)
(0 0 0)
(0 0 0)
(0 0 0)
(0 0 0)
(0 0 0)
(0 0 0)
(0 0 0)
(0 0 0)
(0 0 0)
(0 0 0)
(0 0 0)
(0 0 0)
(0 0 0)
(0 0 0)
(0 0 0)
(0 0 0)
(0 0 0)
(0 0 0)
(0 0 0)
(0 0 0)
(0 0 0)
(0 0 0)
(0 0 0)
(0 0 0)
(0 0 0)
(0 0 0)
(0 0 0)
(0 0 0)
(0 0 0)
(0 0 0)
(0 0 0)
(0 0 0)
(0 0 0)
(0 0 0)
(0 0 0)
(0 0 0)
(0 0 0)
(0 0 0)
(0 0 0)
(0 0 0)
(0 0 0)
(0 0 0)
(0 0 0)
(0 0 0)
(0 0 0)
(0 0 0)
(0 0 0)
(0 0 0)
(0 0 0)
(0 0 0)
(0 0 0)
(0 0 0)
(0 0 0)
(0 0 0)
(0 0 0)
(0 0 0)
(0 0 0)
(0 0 0)
(0 0 0)
(0 0 0)
(0 0 0)
(0 0 0)
(0 0 0)
(0 0 0)
(0 0 0)
(0 0 0)
(0 0 0)
(0 0 0)
(0 0 0)
(0 0 0)
(0 0 0)
(0 0 0)
(0 0 0)
(0 0 0)
(0 0 0)
(0 0 0)
(0 0 0)
(0 0 0)
(0 0 0)
(0 0 0)
(0 0 0)
(0 0 0)
(0 0 0)
(0 0 0)
(0 0 0)
(0 0 0)
(0 0 0)
(0 0 0)
(0 0 0)
(0 0 0)
(0 0 0)
(0 0 0)
(0 0 0)
(0 0 0)
(0 0 0)
(0 0 0)
(0 0 0)
(0 0 0)
(0 0 0)
(0 0 0)
(0 0 0)
(0 0 0)
(0 0 0)
(0 0 0)
(0 0 0)
(0 0 0)
(0 0 0)
(0 0 0)
(0 0 0)
(0 0 0)
(0 0 0)
(-0.00279830873169 5.29956206429e-05 0)
(0 0 0)
(0 0 0)
(0 0 0)
(0 0 0)
(-2.19992857188e-05 3.01790033162e-07 0)
(0 0 0)
(-2.01528493209e-06 3.27835960222e-08 0)
(0 0 0)
(0 0 0)
(0 0 0)
(0 0 0)
(0 0 0)
(0 0 0)
(0 0 0)
(0 0 0)
(0 0 0)
(0 0 0)
(0 0 0)
(0 0 0)
(-0.0158823194036 0.000445286788506 0)
(0 0 0)
(0 0 0)
(0 0 0)
(-0.0271672385714 0.000587517803168 0)
(0 0 0)
(0 0 0)
(-0.253348420924 -0.0249183179576 0.0431660307844)
(-2.07486137591 -0.226444635663 0.386292898281)
(-0.0726033317721 0.00157011725257 0)
(-0.806550792506 -0.00143689142562 0.0266533463604)
(-0.00514309859879 5.94000731961e-05 0)
(-0.069671238099 0.00150670789173 0)
(0 0 0)
(0 0 0)
(0 0 0)
(0 0 0)
(0 0 0)
(-0.015882217766 0.000445283938932 0)
(0 0 0)
(0 0 0)
(0 0 0)
(-0.0257223434881 0.000556270549867 0)
(0 0 0)
(0 0 0)
(0 0 0)
(0 0 0)
(0 0 0)
(0 0 0)
(0 0 0)
(0 0 0)
(-1.67710155145e-05 2.13980319265e-07 0)
(0 0 0)
(-1.03826888443e-05 1.32472065977e-07 0)
(-0.000175446322025 2.92366700936e-06 0)
(-0.00111268979994 1.85420499113e-05 0)
(-0.000102436550356 1.70701989857e-06 0)
(-0.000617880087248 1.02964576628e-05 0)
(0 0 0)
(0 0 0)
(-0.000277540924575 3.34951750687e-06 0)
(0 0 0)
(0 0 0)
(0 0 0)
(0 0 0)
(0 0 0)
(0 0 0)
(-0.0128519902427 0.000243396731638 0)
(-0.000585417330977 9.42817438613e-06 0)
(-0.0028507069112 5.39879607704e-05 0)
(-3.54553430861e-05 5.41941733871e-07 0)
(-0.000203981409826 3.39918051031e-06 0)
(-4.12909220897e-06 6.71699017651e-08 0)
(-4.21410005382e-05 6.44133293062e-07 0)
(0 0 0)
(0 0 0)
(0 0 0)
(0 0 0)
(0 0 0)
(-0.000295269969535 3.56348143512e-06 0)
(0 0 0)
(0 0 0)
(0 0 0)
(0 0 0)
(0 0 0)
(0 0 0)
(0 0 0)
(0 0 0)
(0 0 0)
(0 0 0)
(0 0 0)
(0 0 0)
(0 0 0)
(0 0 0)
(0 0 0)
(0 0 0)
(0 0 0)
(0 0 0)
(0 0 0)
(0 0 0)
(-0.00481199668831 5.3950403225e-05 0)
(0 0 0)
(0 0 0)
(0 0 0)
(0 0 0)
(0 0 0)
(-0.00427832200962 4.94123602039e-05 0)
(0 0 0)
(0 0 0)
(0 0 0)
(0 0 0)
(0 0 0)
(0 0 0)
(0 0 0)
(0 0 0)
(0 0 0)
(0 0 0)
(0 0 0)
(0 0 0)
(0 0 0)
(0 0 0)
(0 0 0)
(0 0 0)
(0 0 0)
(0 0 0)
(0 0 0)
(0 0 0)
(0 0 0)
(0 0 0)
(-0.0350225579118 0.000837730662262 0)
(-0.00806459038157 0.000137616959815 0)
(-0.0129938405074 0.000221731388991 0)
(-0.00985254496193 0.000176029047261 0)
(-0.0187431059093 0.000448330318013 0)
(0 0 0)
(0 0 0)
(0 0 0)
(0 0 0)
(0 0 0)
(0 0 0)
(0 0 0)
(0 0 0)
(0 0 0)
(0 0 0)
(-0.00462124481406 5.33729375277e-05 0)
(0 0 0)
(-0.00767044269654 0.000137042837679 0)
(0 0 0)
(0 0 0)
(-0.334786398252 -0.0209443081009 0.0402225376491)
(-0.151994523082 -0.00356344369549 0.0099077356927)
(-0.17393732246 0.00375233512794 0)
(-0.0385497728003 0.000833676112084 0)
(-0.731843891812 -0.0542343757785 0.100527352277)
(-0.0555946027788 0.000790138877304 0.000719518674526)
(-0.0909880965143 0.00196770556706 0)
(-0.941605289825 -0.073700114517 0.134481877919)
(-3.2693792298 -0.263809470897 0.480430080099)
(-0.434962086772 -0.000295885329623 0.0136524296167)
(-0.407628826401 0.00230406384456 0.00910338886514)
(-1.90084001593 -0.159073457016 0.287176712969)
(-0.212440192071 0.00221903684093 0.00329293783877)
(-1.6297834172 -0.12306354676 0.226669486279)
(-0.088839117292 -0.00164680639287 0.00514357659967)
(-0.00868908684184 0.000155242293666 0)
(-0.0181610248139 0.000392749722203 0)
(-0.0178830599089 0.000386738462357 0)
(-0.0240598699649 0.000575505959629 0)
(-0.0240530012968 0.000575341662836 0)
(-0.0429417314342 0.000928656464298 0)
(-0.309969253995 -0.01792950954 0.0351557111375)
(-0.126700800829 -0.000643489113129 0.00499908157383)
(-0.169536305556 0.00365739236295 0)
(-0.0375810203831 0.00081272590434 0)
(-0.0557615200051 0.000772067724992 0.000748935352569)
(-0.0900301474044 0.00194698899128 0)
(-0.561159838062 -0.0319308449056 0.0630483556718)
(0 0 0)
(0 0 0)
(0 0 0)
(0 0 0)
(0 0 0)
(0 0 0)
(0 0 0)
(0 0 0)
(0 0 0)
(0 0 0)
(0 0 0)
(0 0 0)
(0 0 0)
(0 0 0)
(0 0 0)
(0 0 0)
(0 0 0)
(0 0 0)
(0 0 0)
(0 0 0)
(0 0 0)
(0 0 0)
(0 0 0)
(-0.004492001166 5.18802416349e-05 0)
(0 0 0)
(-0.0076667127181 0.000136976196567 0)
(0 0 0)
(0 0 0)
(0 0 0)
(-0.0349973323591 0.000837127273469 0)
(-0.0124820241889 0.000212997578295 0)
(-0.00755087850166 0.000128850802603 0)
(-0.0187315386623 0.000448053632412 0)
(0 0 0)
(-0.00984421059497 0.000175880142518 0)
(0 0 0)
(0 0 0)
(0 0 0)
(0 0 0)
(0 0 0)
(0 0 0)
(0 0 0)
(0 0 0)
(0 0 0)
(0 0 0)
(0 0 0)
(0 0 0)
(0 0 0)
(0 0 0)
(0 0 0)
(0 0 0)
(0 0 0)
(0 0 0)
(0 0 0)
(0 0 0)
(0 0 0)
(0 0 0)
(0 0 0)
(0 0 0)
(0 0 0)
(0 0 0)
(0 0 0)
(0 0 0)
(0 0 0)
(0 0 0)
(0 0 0)
(0 0 0)
(0 0 0)
(0 0 0)
(0 0 0)
(0 0 0)
(-0.0153122905967 0.00028270184192 0)
(0 0 0)
(0 0 0)
(0 0 0)
(0 0 0)
(0 0 0)
(0 0 0)
(0 0 0)
(-0.00341663709356 6.30793670891e-05 0)
(0 0 0)
(0 0 0)
(0 0 0)
(0 0 0)
(0 0 0)
(0 0 0)
(0 0 0)
(0 0 0)
(0 0 0)
(0 0 0)
(0 0 0)
(0 0 0)
(0 0 0)
(0 0 0)
(0 0 0)
(0 0 0)
(0 0 0)
(0 0 0)
(0 0 0)
(0 0 0)
(0 0 0)
(0 0 0)
(0 0 0)
(0 0 0)
(0 0 0)
(0 0 0)
(0 0 0)
(-0.328878942406 0.00833077880894 0)
(-0.00786155209826 0.000145143226253 0)
(0 0 0)
(0 0 0)
(0 0 0)
(0 0 0)
(0 0 0)
(0 0 0)
(-0.0721852192027 0.00184933536111 0)
(0 0 0)
(0 0 0)
(0 0 0)
(0 0 0)
(0 0 0)
(0 0 0)
(0 0 0)
(0 0 0)
(0 0 0)
(0 0 0)
(0 0 0)
(0 0 0)
(0 0 0)
(0 0 0)
(0 0 0)
(0 0 0)
(0 0 0)
(0 0 0)
(0 0 0)
(0 0 0)
(0 0 0)
(0 0 0)
(0 0 0)
(0 0 0)
(0 0 0)
(0 0 0)
(0 0 0)
(-1.54587297218 0.0500046562824 0)
(-0.0444918963853 0.00144431174899 0)
(0 0 0)
(0 0 0)
(0 0 0)
(0 0 0)
(0 0 0)
(0 0 0)
(-0.33904667733 0.0108390155272 0)
(-0.00671848542269 0.000243958363423 0)
(0 0 0)
(0 0 0)
(0 0 0)
(0 0 0)
(0 0 0)
(0 0 0)
(0 0 0)
(0 0 0)
(0 0 0)
(0 0 0)
(0 0 0)
(0 0 0)
(0 0 0)
(0 0 0)
(0 0 0)
(0 0 0)
(0 0 0)
(0 0 0)
(0 0 0)
(0 0 0)
(0 0 0)
(0 0 0)
(0 0 0)
(0 0 0)
(0 0 0)
(0 0 0)
(0 0 0)
(0 0 0)
(0 0 0)
(0 0 0)
(0 0 0)
(0 0 0)
(0 0 0)
(-2.54361847616 0.0695285509395 0)
(-0.0768129928826 0.00209964510736 0)
(0 0 0)
(0 0 0)
(0 0 0)
(0 0 0)
(0 0 0)
(0 0 0)
(-2.54366864932 0.069529922398 0)
(-0.567565679923 0.0155141266892 0)
(-0.0158822385932 0.000445284522857 0)
(0 0 0)
(0 0 0)
(0 0 0)
(0 0 0)
(0 0 0)
(0 0 0)
(-0.0465889665484 0.00127348632047 0)
(-0.0768124278783 0.00209962966325 0)
(-0.0158822246002 0.000445284130539 0)
(0 0 0)
(0 0 0)
(0 0 0)
(0 0 0)
(0 0 0)
(0 0 0)
(0 0 0)
(0 0 0)
(0 0 0)
(0 0 0)
(0 0 0)
(0 0 0)
(0 0 0)
(0 0 0)
(0 0 0)
(0 0 0)
(0 0 0)
(0 0 0)
(0 0 0)
(0 0 0)
(0 0 0)
(0 0 0)
(0 0 0)
(0 0 0)
(0 0 0)
(0 0 0)
(-0.0743809355071 0.00140843789661 0)
(-0.00213465126435 4.04269790997e-05 0)
(0 0 0)
(0 0 0)
(0 0 0)
(0 0 0)
(0 0 0)
(0 0 0)
(-0.0357768121422 0.000677450716334 0)
(-0.0703564861151 0.00133223306001 0)
(-0.0167223915723 0.000316696120757 0)
(-0.000378740712235 4.57085256216e-06 0)
(0 0 0)
(0 0 0)
(0 0 0)
(0 0 0)
(0 0 0)
(0 0 0)
(-0.00104100393479 1.67654186416e-05 0)
(-0.002077436402 3.9343418481e-05 0)
(-0.000371143902746 4.47917006013e-06 0)
(0 0 0)
(0 0 0)
(0 0 0)
(0 0 0)
(0 0 0)
(0 0 0)
(0 0 0)
(0 0 0)
(0 0 0)
(0 0 0)
(0 0 0)
(0 0 0)
(0 0 0)
(0 0 0)
(0 0 0)
(0 0 0)
(0 0 0)
(0 0 0)
(0 0 0)
(0 0 0)
(0 0 0)
(0 0 0)
(0 0 0)
(0 0 0)
(0 0 0)
(0 0 0)
(-0.000172823440045 2.56759154868e-06 0)
(-0.000165953776433 2.46553079681e-06 0)
(-2.12106334444e-05 2.909711639e-07 0)
(0 0 0)
(0 0 0)
(0 0 0)
(0 0 0)
(0 0 0)
(0 0 0)
(0 0 0)
(-2.32314987344e-05 3.18693745928e-07 0)
(-2.24209378751e-05 3.07574330883e-07 0)
(-2.01271919578e-06 3.27418579725e-08 0)
(0 0 0)
(0 0 0)
(0 0 0)
(0 0 0)
(0 0 0)
(0 0 0)
(0 0 0)
(0 0 0)
(0 0 0)
(0 0 0)
(0 0 0)
(0 0 0)
(0 0 0)
(0 0 0)
(0 0 0)
(0 0 0)
(0 0 0)
(0 0 0)
(0 0 0)
(0 0 0)
(0 0 0)
(0 0 0)
(0 0 0)
(0 0 0)
(0 0 0)
(0 0 0)
(0 0 0)
(0 0 0)
(0 0 0)
(0 0 0)
(0 0 0)
(0 0 0)
(0 0 0)
(0 0 0)
(0 0 0)
(0 0 0)
(-0.00341665338826 6.30796679285e-05 0)
(-0.00928738606856 0.000171467562715 0)
(-0.00207230008301 3.82596612035e-05 0)
(-0.0883619946193 0.00195735004376 0)
(-0.0180894492857 0.000333974894225 0)
(-0.0535940438572 0.00118718805003 0)
(-0.0109718051915 0.000202566005213 0)
(0 0 0)
(0 0 0)
(0 0 0)
(-0.00244813636775 4.51985061323e-05 0)
(0 0 0)
(0 0 0)
(0 0 0)
(0 0 0)
(0 0 0)
(0 0 0)
(-0.0180893280708 0.000333972656307 0)
(-0.00403628821054 7.45196222888e-05 0)
(-0.00403624961356 7.45189096954e-05 0)
(0 0 0)
(0 0 0)
(0 0 0)
(0 0 0)
(0 0 0)
(0 0 0)
(0 0 0)
(0 0 0)
(-0.0721873507596 0.00184938997012 0)
(-0.199474099979 0.00505284586749 0)
(-0.0437838938306 0.00112171305985 0)
(-0.820124428953 0.0239064196793 0)
(-0.181344526499 0.00530741836072 0)
(-0.497429947535 0.0144999571614 0)
(-0.109990985387 0.00321911108445 0)
(0 0 0)
(-0.00476830953103 8.80345026601e-05 0)
(0 0 0)
(-0.0233464609776 0.000708811607786 0)
(0 0 0)
(-0.0124558812796 0.000371631421045 0)
(0 0 0)
(-0.0152319787226 0.000382728045066 0)
(-0.0152316240084 0.000382719132299 0)
(-0.00289205371351 5.3394291767e-05 0)
(-0.181331459694 0.00530703593392 0)
(-0.038491804428 0.00116863270238 0)
(-0.038489985176 0.00116857746887 0)
(-0.00755481510228 0.000225404097002 0)
(0 0 0)
(0 0 0)
(0 0 0)
(-0.00341662928073 6.30792228453e-05 0)
(0 0 0)
(0 0 0)
(0 0 0)
(-0.339084808896 0.0108402345589 0)
(-0.921679378046 0.0294652558416 0)
(-0.205664493745 0.00657490779339 0)
(-2.25078656096 0.0710134461996 0)
(-0.496404033139 0.0155289283447 0)
(-1.34928739135 0.0422095426668 0)
(-0.301084539102 0.00941877970621 0)
(0 0 0)
(-0.0269856181375 0.000876016724307 0)
(0 0 0)
(-0.0671810698024 0.00210161471188 0)
(0 0 0)
(-0.0407476286403 0.00127470158002 0)
(0 0 0)
(-0.0756586183686 0.00241873757833 0)
(-0.0756577693054 0.00241871043455 0)
(-0.0143964852437 0.000515733363625 0)
(-0.496384939226 0.0155283310329 0)
(-0.110762419012 0.00346496312138 0)
(-0.110764242673 0.00346502017065 0)
(-0.0247148102901 0.000773149475885 0)
(0 0 0)
(0 0 0)
(0 0 0)
(-0.0138071743057 0.000449692870478 0)
(0 0 0)
(0 0 0)
(0 0 0)
(-7.10710908698 0.199485482566 0)
(-4.21981464665 0.116052546731 0)
(-3.85546846449 0.0831736946927 0)
(-1.81884017652 0.0392376851036 0)
(-0.567573633313 0.0155143440911 0)
(-1.54280329625 0.0421717637997 0)
(-0.344251371671 0.00940994070279 0)
(-2.34628823119 0.0506162773213 0)
(-0.249766411467 0.00538818964367 0)
(-1.10670850521 0.0238749288639 0)
(-0.117597847026 0.00253692839538 0)
(0 0 0)
(-0.0465894668516 0.00127349999601 0)
(0 0 0)
(-0.0905019986536 0.0019571932308 0)
(0 0 0)
(-0.0426263266992 0.000921835531928 0)
(0 0 0)
(0 0 0)
(0 0 0)
(0 0 0)
(0 0 0)
(0 0 0)
(0 0 0)
(0 0 0)
(0 0 0)
(0 0 0)
(0 0 0)
(0 0 0)
(0 0 0)
(0 0 0)
(0 0 0)
(0 0 0)
(0 0 0)
(0 0 0)
(0 0 0)
(0 0 0)
(0 0 0)
(0 0 0)
(0 0 0)
(0 0 0)
(0 0 0)
(0 0 0)
(0 0 0)
(0 0 0)
(0 0 0)
(0 0 0)
(0 0 0)
(0 0 0)
(0 0 0)
(0 0 0)
(0 0 0)
(0 0 0)
(0 0 0)
(0 0 0)
(0 0 0)
(0 0 0)
(0 0 0)
(0 0 0)
(0 0 0)
(-2.29248031251 -0.220497870419 0.386295272817)
(-0.792666232618 -0.010176749386 0.0431665955599)
(-1.24056832072 0.00792297379573 0.0266578150974)
(-2.33290797389 0.0503276261636 0)
(-0.117008910516 0.00252422331792 0)
(-0.248702118075 0.00536522973245 0)
(-1.54280155668 0.0421717162493 0)
(-0.567572177568 0.0155143042991 0)
(-0.344249789341 0.00940989745061 0)
(-2.33394279515 0.050349950275 0)
(-1.10549998194 0.0238488574937 0)
(-0.249095263163 0.00537371101815 0)
(-0.117731977819 0.00253982198762 0)
(-0.126641322206 0.0034616778045 0)
(-0.126641779176 0.00346169029556 0)
(-0.0282575796954 0.000772406942195 0)
(-0.671744930506 0.0144914965006 0)
(-0.0700097734279 0.00151402904556 0)
(-0.0702040567475 0.00151823061021 0)
(-0.0050429464459 5.82433687118e-05 0)
(0 0 0)
(0 0 0)
(0 0 0)
(-0.0258081022172 0.000558125165308 0)
(0 0 0)
(0 0 0)
(0 0 0)
(0 0 0)
(0 0 0)
(0 0 0)
(0 0 0)
(0 0 0)
(0 0 0)
(0 0 0)
(0 0 0)
(0 0 0)
(0 0 0)
(0 0 0)
(0 0 0)
(0 0 0)
(0 0 0)
(0 0 0)
(0 0 0)
(0 0 0)
(0 0 0)
(0 0 0)
(0 0 0)
(0 0 0)
(0 0 0)
(0 0 0)
(0 0 0)
(0 0 0)
(0 0 0)
(0 0 0)
(0 0 0)
(0 0 0)
(0 0 0)
(0 0 0)
(0 0 0)
(0 0 0)
(0 0 0)
(0 0 0)
(0 0 0)
(0 0 0)
(0 0 0)
(0 0 0)
(0 0 0)
(0 0 0)
(0 0 0)
(-0.0768122936827 0.00209962599508 0)
(0 0 0)
(0 0 0)
(-0.0424547260097 0.00091812450109 0)
(-0.0902175982756 0.00195104279762 0)
(0 0 0)
(0 0 0)
(-0.0465889991361 0.00127348721124 0)
(0 0 0)
(0 0 0)
(-0.0903960219732 0.00195490138261 0)
(-0.0427321725654 0.000924124551131 0)
(0 0 0)
(0 0 0)
(0 0 0)
(0 0 0)
(0 0 0)
(-0.0259185145429 0.000560512938613 0)
(0 0 0)
(0 0 0)
(0 0 0)
(0 0 0)
(0 0 0)
(0 0 0)
(0 0 0)
(0 0 0)
(0 0 0)
(0 0 0)
(0 0 0)
(0 0 0)
(0 0 0)
(0 0 0)
(0 0 0)
(0 0 0)
(0 0 0)
(0 0 0)
(0 0 0)
(0 0 0)
(0 0 0)
(0 0 0)
(0 0 0)
(0 0 0)
(0 0 0)
(0 0 0)
(0 0 0)
(0 0 0)
(0 0 0)
(0 0 0)
(0 0 0)
(0 0 0)
(0 0 0)
(0 0 0)
(0 0 0)
(0 0 0)
(0 0 0)
(0 0 0)
(0 0 0)
(0 0 0)
(0 0 0)
(0 0 0)
(0 0 0)
(0 0 0)
(0 0 0)
(0 0 0)
(0 0 0)
(0 0 0)
(0 0 0)
(0 0 0)
(0 0 0)
(0 0 0)
(0 0 0)
(0 0 0)
(0 0 0)
(0 0 0)
(0 0 0)
(0 0 0)
(0 0 0)
(0 0 0)
(0 0 0)
(0 0 0)
(0 0 0)
(0 0 0)
(0 0 0)
(0 0 0)
(0 0 0)
(0 0 0)
(0 0 0)
(0 0 0)
(0 0 0)
(0 0 0)
(0 0 0)
(0 0 0)
(0 0 0)
(0 0 0)
(0 0 0)
(0 0 0)
(0 0 0)
(0 0 0)
(0 0 0)
(0 0 0)
(0 0 0)
(0 0 0)
(0 0 0)
(0 0 0)
(0 0 0)
(0 0 0)
(0 0 0)
(0 0 0)
(0 0 0)
(0 0 0)
(0 0 0)
(0 0 0)
(0 0 0)
(0 0 0)
(0 0 0)
(0 0 0)
(0 0 0)
(0 0 0)
(0 0 0)
(0 0 0)
(0 0 0)
(0 0 0)
(0 0 0)
(0 0 0)
(0 0 0)
(0 0 0)
(0 0 0)
(0 0 0)
(0 0 0)
(0 0 0)
(0 0 0)
(0 0 0)
(0 0 0)
(0 0 0)
(0 0 0)
(0 0 0)
(0 0 0)
(0 0 0)
(0 0 0)
(0 0 0)
(0 0 0)
(0 0 0)
(0 0 0)
(0 0 0)
(0 0 0)
(0 0 0)
(0 0 0)
(0 0 0)
(0 0 0)
(0 0 0)
(0 0 0)
(0 0 0)
(0 0 0)
(0 0 0)
(0 0 0)
(0 0 0)
(0 0 0)
(0 0 0)
(0 0 0)
(0 0 0)
(0 0 0)
(0 0 0)
(0 0 0)
(0 0 0)
(0 0 0)
(0 0 0)
(0 0 0)
(0 0 0)
(0 0 0)
(0 0 0)
(0 0 0)
(0 0 0)
(0 0 0)
(0 0 0)
(0 0 0)
(0 0 0)
(0 0 0)
(0 0 0)
(0 0 0)
(0 0 0)
(0 0 0)
(0 0 0)
(0 0 0)
(0 0 0)
(0 0 0)
(0 0 0)
(0 0 0)
(0 0 0)
(0 0 0)
(0 0 0)
(0 0 0)
(-0.00291882381025 4.86478723554e-05 0)
(-0.00322558946272 5.37607182395e-05 0)
(-0.00192680725079 3.21086399961e-05 0)
(-0.0020941971848 3.49038667478e-05 0)
(-0.199391365222 0.00377556900999 0)
(-0.123872708086 0.00234558782079 0)
(-0.0024542120207 4.09042137784e-05 0)
(-0.00145762971868 2.42942325763e-05 0)
(-0.00151215800342 2.52030524326e-05 0)
(-0.000898302083419 1.49694569565e-05 0)
(-0.0161495964873 0.000305848271595 0)
(-0.0460457272357 0.000871897439491 0)
(-0.0100007906644 0.000189399440518 0)
(-0.000540954065408 9.01454950074e-06 0)
(-0.000118606705065 1.97648207545e-06 0)
(-0.000337689729409 5.62731842925e-06 0)
(-7.3414480182e-05 1.2233912415e-06 0)
(0 0 0)
(-0.00123851764621 1.99463865022e-05 0)
(0 0 0)
(-1.35565845131e-05 1.72967598758e-07 0)
(0 0 0)
(-8.29069131108e-06 1.05780402632e-07 0)
(0 0 0)
(0 0 0)
(0 0 0)
(0 0 0)
(0 0 0)
(0 0 0)
(0 0 0)
(0 0 0)
(0 0 0)
(0 0 0)
(0 0 0)
(0 0 0)
(0 0 0)
(0 0 0)
(0 0 0)
(0 0 0)
(0 0 0)
(0 0 0)
(0 0 0)
(0 0 0)
(0 0 0)
(0 0 0)
(0 0 0)
(0 0 0)
(0 0 0)
(0 0 0)
(0 0 0)
(0 0 0)
(0 0 0)
(0 0 0)
(0 0 0)
(0 0 0)
(0 0 0)
(0 0 0)
(0 0 0)
(0 0 0)
(0 0 0)
(0 0 0)
(0 0 0)
(0 0 0)
(0 0 0)
(0 0 0)
(0 0 0)
(-0.0653771757321 0.00123794748273 0)
(-0.00808441607982 0.000153106282675 0)
(-0.0145669155923 0.000275874753891 0)
(-0.000822453408817 1.37055018899e-05 0)
(-0.00110024476665 1.83346637841e-05 0)
(-0.000176042883339 2.93360820741e-06 0)
(-0.000228136037969 3.80169729498e-06 0)
(-0.0449071916915 0.000850338735018 0)
(-0.0155901005678 0.00029525228797 0)
(-0.00986313604871 0.000186792475922 0)
(-0.000843094101338 1.40494618606e-05 0)
(-0.000471534639233 7.85773251093e-06 0)
(-0.000150191599753 2.50281807116e-06 0)
(-8.20845043135e-05 1.36786998138e-06 0)
(-0.00370966679593 7.02553267272e-05 0)
(-0.00367525579493 6.96036358203e-05 0)
(-0.000769653268525 1.23953030574e-05 0)
(-0.000153204570877 2.55302672856e-06 0)
(-2.86213430569e-05 4.37482729874e-07 0)
(-2.80503549598e-05 4.28755067062e-07 0)
(-3.0384987709e-06 4.9428700941e-08 0)
(0 0 0)
(0 0 0)
(0 0 0)
(0 0 0)
(0 0 0)
(0 0 0)
(0 0 0)
(0 0 0)
(0 0 0)
(0 0 0)
(0 0 0)
(0 0 0)
(0 0 0)
(0 0 0)
(0 0 0)
(0 0 0)
(0 0 0)
(0 0 0)
(0 0 0)
(0 0 0)
(0 0 0)
(0 0 0)
(0 0 0)
(0 0 0)
(0 0 0)
(0 0 0)
(0 0 0)
(0 0 0)
(0 0 0)
(0 0 0)
(0 0 0)
(0 0 0)
(0 0 0)
(0 0 0)
(0 0 0)
(0 0 0)
(0 0 0)
(0 0 0)
(0 0 0)
(0 0 0)
(0 0 0)
(0 0 0)
(0 0 0)
(0 0 0)
(0 0 0)
(0 0 0)
(0 0 0)
(0 0 0)
(0 0 0)
(-0.00197673399012 3.74362712254e-05 0)
(0 0 0)
(0 0 0)
(-1.68469384557e-05 2.14949015238e-07 0)
(-1.87384839785e-05 2.39083124144e-07 0)
(0 0 0)
(0 0 0)
(-0.00122681301191 1.97578828015e-05 0)
(0 0 0)
(0 0 0)
(-1.3262948757e-05 1.69221118839e-07 0)
(-7.98735875255e-06 1.01910201829e-07 0)
(0 0 0)
(0 0 0)
(0 0 0)
(0 0 0)
(0 0 0)
(0 0 0)
(0 0 0)
(0 0 0)
(0 0 0)
(0 0 0)
(0 0 0)
(0 0 0)
(0 0 0)
(0 0 0)
(0 0 0)
(0 0 0)
(0 0 0)
(0 0 0)
(0 0 0)
(0 0 0)
(0 0 0)
(0 0 0)
(0 0 0)
(0 0 0)
(0 0 0)
(0 0 0)
(0 0 0)
(0 0 0)
(0 0 0)
(0 0 0)
(0 0 0)
(0 0 0)
(0 0 0)
(0 0 0)
(0 0 0)
(0 0 0)
(0 0 0)
(0 0 0)
(0 0 0)
(0 0 0)
(0 0 0)
(0 0 0)
(0 0 0)
(0 0 0)
(0 0 0)
(0 0 0)
(0 0 0)
(0 0 0)
(0 0 0)
(0 0 0)
(0 0 0)
(0 0 0)
(0 0 0)
(0 0 0)
(0 0 0)
(0 0 0)
(0 0 0)
(0 0 0)
(0 0 0)
(0 0 0)
(0 0 0)
(0 0 0)
(0 0 0)
(0 0 0)
(0 0 0)
(0 0 0)
(0 0 0)
(0 0 0)
(0 0 0)
(0 0 0)
(0 0 0)
(0 0 0)
(0 0 0)
(0 0 0)
(0 0 0)
(0 0 0)
(0 0 0)
(0 0 0)
(0 0 0)
(0 0 0)
(0 0 0)
(0 0 0)
(0 0 0)
(0 0 0)
(0 0 0)
(0 0 0)
(0 0 0)
(0 0 0)
(0 0 0)
(0 0 0)
(0 0 0)
(0 0 0)
(0 0 0)
(0 0 0)
(0 0 0)
(0 0 0)
(0 0 0)
(0 0 0)
(0 0 0)
(0 0 0)
(0 0 0)
(0 0 0)
(0 0 0)
(0 0 0)
(0 0 0)
(0 0 0)
(0 0 0)
(0 0 0)
(0 0 0)
(0 0 0)
(0 0 0)
(0 0 0)
(0 0 0)
(0 0 0)
(0 0 0)
(0 0 0)
(0 0 0)
(0 0 0)
(0 0 0)
(0 0 0)
(0 0 0)
(0 0 0)
(0 0 0)
(0 0 0)
(0 0 0)
(0 0 0)
(0 0 0)
(0 0 0)
(0 0 0)
(0 0 0)
(0 0 0)
(0 0 0)
(0 0 0)
(0 0 0)
(0 0 0)
(0 0 0)
(0 0 0)
(0 0 0)
(0 0 0)
(0 0 0)
(0 0 0)
(0 0 0)
(0 0 0)
(0 0 0)
(0 0 0)
(0 0 0)
(0 0 0)
(0 0 0)
(0 0 0)
(0 0 0)
(0 0 0)
(0 0 0)
(0 0 0)
(0 0 0)
(0 0 0)
(0 0 0)
(0 0 0)
(0 0 0)
(0 0 0)
(0 0 0)
(0 0 0)
(0 0 0)
(0 0 0)
(0 0 0)
(0 0 0)
(0 0 0)
(0 0 0)
(0 0 0)
(0 0 0)
(0 0 0)
(0 0 0)
(0 0 0)
(0 0 0)
(0 0 0)
(0 0 0)
(0 0 0)
(0 0 0)
(0 0 0)
(0 0 0)
(0 0 0)
(0 0 0)
(0 0 0)
(0 0 0)
(0 0 0)
(-6.9015134136 0.164425254628 0)
(-5.3617963872 0.127341458607 0)
(-5.59268006756 0.120650413494 0)
(-3.39401629411 0.0732188260981 0)
(-4.7314156947 0.1123700589 0)
(-4.92276645338 0.106198423825 0)
(-7.82986477018 0.186808118688 0)
(-5.3613505271 0.12733086953 0)
(-2.53249988698 0.0601463028884 0)
(-2.64284859902 0.0570139490229 0)
(-2.63861744854 0.056922670772 0)
(-3.68460617194 0.0875085681072 0)
(-3.68501370806 0.0875182469984 0)
(-3.83380586972 0.0827063693702 0)
(-1.53607945835 0.0364815417515 0)
(-3.25205709436 0.0772356247726 0)
(-1.26090965865 0.0272014972888 0)
(-2.06713428012 0.0445941127743 0)
(-2.86970876495 0.0681549379194 0)
(-1.11125760505 0.0239730662093 0)
(-1.74073391003 0.0413420389627 0)
(-0.725628861134 0.0172335222958 0)
(-0.342783641258 0.00814103440566 0)
(-0.597753533154 0.0128952863513 0)
(-0.220154122081 0.00474936623238 0)
(-0.302503889643 0.00718439936162 0)
(-0.52668912987 0.0113622199972 0)
(-0.822294778026 0.0195293160868 0)
(-1.19622914573 0.0284101732415 0)
(-1.53602935076 0.0364803517074 0)
(-1.60889978432 0.034708658801 0)
(-0.594070107694 0.0128158241258 0)
(-2.23479653851 0.0530759153 0)
(-0.822189502268 0.0195268158112 0)
(-0.864955576867 0.0186596134129 0)
(-0.565101099743 0.0134210240571 0)
(-0.161907318362 0.00384526240656 0)
(-0.171298996317 0.00369541874149 0)
(-0.281379878365 0.00607018428794 0)
(-0.235578265751 0.00559493084229 0)
(-0.388393113061 0.00922424910579 0)
(-0.409977349726 0.00884440664763 0)
(-0.0350032927716 0.000837269845017 0)
(-0.126101969621 0.00299489342473 0)
(-0.0294243602739 0.000636330242485 0)
(-0.0798158069972 0.00172609400333 0)
(-0.111285117312 0.00264299651391 0)
(-0.025943953086 0.000561063071706 0)
(-0.0396633073191 0.000948736205723 0)
(-0.00868842469331 0.000155230463487 0)
(0 0 0)
(-0.00761065682453 0.000129870880582 0)
(0 0 0)
(0 0 0)
(-0.00507327932994 5.85936975062e-05 0)
(-0.00984510581964 0.000175896136918 0)
(-0.0272584658028 0.000652015557136 0)
(-0.0595621252541 0.00141458708236 0)
(-0.0620915228387 0.0013427892201 0)
(-0.0124814016135 0.000212986954453 0)
(-0.0866636957191 0.00205824328717 0)
(-0.0187342546878 0.00044811859905 0)
(-0.0201826016425 0.000436468275864 0)
(-0.00480690468499 5.38933134866e-05 0)
(0 0 0)
(0 0 0)
(0 0 0)
(0 0 0)
(0 0 0)
(-0.00394664291281 4.55816417664e-05 0)
(0 0 0)
(0 0 0)
(0 0 0)
(0 0 0)
(0 0 0)
(0 0 0)
(0 0 0)
(0 0 0)
(0 0 0)
(0 0 0)
(0 0 0)
(0 0 0)
(0 0 0)
(0 0 0)
(0 0 0)
(0 0 0)
(0 0 0)
(0 0 0)
(0 0 0)
(0 0 0)
(0 0 0)
(0 0 0)
(0 0 0)
(0 0 0)
(0 0 0)
(0 0 0)
(0 0 0)
(0 0 0)
(0 0 0)
(0 0 0)
(0 0 0)
(0 0 0)
(0 0 0)
(0 0 0)
(0 0 0)
(0 0 0)
(0 0 0)
(0 0 0)
(0 0 0)
(0 0 0)
(0 0 0)
(0 0 0)
(0 0 0)
(0 0 0)
(0 0 0)
(0 0 0)
(0 0 0)
(0 0 0)
(0 0 0)
(0 0 0)
(0 0 0)
(0 0 0)
(0 0 0)
(0 0 0)
(0 0 0)
(0 0 0)
(0 0 0)
(0 0 0)
(0 0 0)
(0 0 0)
(0 0 0)
(0 0 0)
(0 0 0)
(0 0 0)
(0 0 0)
(0 0 0)
(0 0 0)
(0 0 0)
(0 0 0)
(0 0 0)
(0 0 0)
(0 0 0)
(0 0 0)
(0 0 0)
(0 0 0)
(0 0 0)
(0 0 0)
(0 0 0)
(0 0 0)
(0 0 0)
(0 0 0)
(0 0 0)
(0 0 0)
(0 0 0)
(0 0 0)
(0 0 0)
(0 0 0)
(0 0 0)
(0 0 0)
(0 0 0)
(0 0 0)
(0 0 0)
(0 0 0)
(0 0 0)
(0 0 0)
(0 0 0)
(0 0 0)
(0 0 0)
(0 0 0)
(0 0 0)
(0 0 0)
(0 0 0)
(0 0 0)
(0 0 0)
(0 0 0)
(0 0 0)
(0 0 0)
(0 0 0)
(0 0 0)
(0 0 0)
(0 0 0)
(0 0 0)
(0 0 0)
(0 0 0)
(0 0 0)
(0 0 0)
(0 0 0)
(0 0 0)
(0 0 0)
(0 0 0)
(0 0 0)
(0 0 0)
(0 0 0)
(0 0 0)
(0 0 0)
(0 0 0)
(0 0 0)
(0 0 0)
(0 0 0)
(0 0 0)
(0 0 0)
(0 0 0)
(0 0 0)
(0 0 0)
(0 0 0)
(0 0 0)
(0 0 0)
(0 0 0)
(0 0 0)
(0 0 0)
(0 0 0)
(0 0 0)
(0 0 0)
(0 0 0)
(0 0 0)
(0 0 0)
(0 0 0)
(0 0 0)
(0 0 0)
(0 0 0)
(0 0 0)
(0 0 0)
(0 0 0)
(0 0 0)
(0 0 0)
(0 0 0)
(0 0 0)
(0 0 0)
(0 0 0)
(0 0 0)
(0 0 0)
(0 0 0)
(0 0 0)
(0 0 0)
(0 0 0)
(0 0 0)
(0 0 0)
(0 0 0)
(-1.87087312655 -0.0516351206754 0.134488749265)
(-3.87343980298 -0.24944190583 0.480400164027)
(-1.67495691827 0.0265890257683 0.01346256841)
(-0.640254471795 0.00731826436654 0.00910929840304)
(-3.63683105894 -0.117835661977 0.287164903337)
(-0.878791649557 0.0166157235416 0.00326292824142)
(-1.95321561118 -0.11538143131 0.226668542492)
(-1.74467819234 0.0125417288084 0.0402205556978)
(-3.30560288159 0.0713373233525 0.00990320864863)
(-2.05732818065 0.044382566621 0)
(-1.25429834075 0.0270588718875 0)
(-3.36589557375 0.00833627071481 0.100509790036)
(-1.74529147934 0.0409115097224 0.000719375152653)
(-1.10498244065 0.0238376926191 0)
(-0.748933740204 -0.00750688061019 0.035159434931)
(-0.190401464322 0.000869218102419 0.00499931317345)
(-0.279969312263 0.00603975426487 0)
(-0.170612772903 0.00368061490188 0)
(-0.240398865366 0.00514841091274 0.000749067159284)
(-0.407931676278 0.00880027550756 0)
(-0.713968568468 -0.0283039194893 0.0630514867182)
(-0.754825324456 0.0141702224014 0.00514356822067)
(-0.34275857552 0.00814043910002 0)
(-0.594761737706 0.0128307446015 0)
(-0.219186747084 0.00472849713351 0)
(-0.822205988476 0.0195272073549 0)
(-0.302474499629 0.00718370135541 0)
(-0.523984430864 0.0113038717546 0)
(-1.53607652338 0.0364814720466 0)
(-3.25183461289 0.0772303408878 0)
(-2.06049098572 0.044450797547 0)
(-1.25530422893 0.0270805718281 0)
(-2.8696717044 0.0681540577396 0)
(-1.7406327967 0.0413396375438 0)
(-1.10819991375 0.0239071028938 0)
(-1.19623568034 0.0284103284369 0)
(-1.53582808924 0.0364755717917 0)
(-1.60541697548 0.0346335244608 0)
(-0.594169564968 0.0128179697091 0)
(-2.23476723239 0.0530752192864 0)
(-0.822118138563 0.0195251209393 0)
(-0.86325502659 0.0186229275858 0)
(-0.725563807832 0.0172319772944 0)
(-0.342757060047 0.00814040310789 0)
(-0.595190227748 0.0128399883809 0)
(-0.219993962106 0.00474591111481 0)
(-0.822201738999 0.0195271064308 0)
(-0.302477148188 0.0071837642581 0)
(-0.525271797161 0.0113316439987 0)
(-0.565026457443 0.0134192513192 0)
(-0.161879696102 0.00384460638409 0)
(-0.28134272278 0.00606938273367 0)
(-0.171271252508 0.00369482022663 0)
(-0.38830705659 0.00922220528396 0)
(-0.235555102739 0.00559438072595 0)
(-0.409033439358 0.0088240437492 0)
(-0.266866716746 0.00633802451827 0)
(-0.931496068178 0.0221228221742 0)
(-0.360175665589 0.00777003913308 0)
(-0.360643051124 0.00778012200166 0)
(-0.498575076822 0.0118410459709 0)
(-0.498607087766 0.0118418062236 0)
(-0.193108425459 0.00416591170948 0)
(-0.126047815504 0.00299360727662 0)
(-0.0981623779081 0.0023313344037 0)
(-0.170451945144 0.00367714537826 0)
(-0.0374499647316 0.000809891699152 0)
(-0.235496046143 0.0055929781451 0)
(-0.0509025784436 0.0012175767075 0)
(-0.0897544353327 0.00194102645113 0)
(-0.126041920838 0.00299346727964 0)
(-0.0981755334166 0.00233164684407 0)
(-0.170689252425 0.00368226478813 0)
(-0.0375745443774 0.000812585854454 0)
(-0.235499786399 0.00559306697532 0)
(-0.0509083681279 0.00121771519527 0)
(-0.0898163326161 0.00194236503974 0)
(-0.0595309289361 0.00141384617682 0)
(-0.00868315236748 0.000155136266252 0)
(-0.0176994552093 0.000382767833196 0)
(-0.017749839449 0.000383857441098 0)
(-0.0240402756089 0.000575037267625 0)
(-0.0240449067639 0.000575148043673 0)
(-0.0424338735033 0.000917673545476 0)
(0 0 0)
(-0.0349854678734 0.000836843477994 0)
(-0.0075563785438 0.000128944657225 0)
(-0.0124316130216 0.000212137344699 0)
(-0.00984000715476 0.000175805042371 0)
(-0.0187243256309 0.000447881098539 0)
(0 0 0)
(0 0 0)
(0 0 0)
(0 0 0)
(0 0 0)
(0 0 0)
(0 0 0)
(0 0 0)
(0 0 0)
(0 0 0)
(-0.0044441576439 5.13276742166e-05 0)
(0 0 0)
(-0.0076617324713 0.000136887217719 0)
(0 0 0)
(0 0 0)
(0 0 0)
(0 0 0)
(0 0 0)
(0 0 0)
(0 0 0)
(0 0 0)
(0 0 0)
(0 0 0)
(0 0 0)
(0 0 0)
(0 0 0)
(0 0 0)
(0 0 0)
(0 0 0)
(0 0 0)
(0 0 0)
(0 0 0)
(0 0 0)
(0 0 0)
(0 0 0)
(0 0 0)
(0 0 0)
(0 0 0)
(0 0 0)
(0 0 0)
(0 0 0)
(0 0 0)
(0 0 0)
(0 0 0)
(0 0 0)
(0 0 0)
(0 0 0)
(0 0 0)
(0 0 0)
(0 0 0)
(0 0 0)
(0 0 0)
(0 0 0)
(0 0 0)
(0 0 0)
(0 0 0)
(0 0 0)
(0 0 0)
(0 0 0)
(0 0 0)
(0 0 0)
(0 0 0)
(0 0 0)
(0 0 0)
(0 0 0)
(0 0 0)
(0 0 0)
(0 0 0)
(0 0 0)
(0 0 0)
(0 0 0)
(0 0 0)
(0 0 0)
(0 0 0)
(0 0 0)
(0 0 0)
(0 0 0)
(0 0 0)
(0 0 0)
(0 0 0)
(0 0 0)
(0 0 0)
(0 0 0)
(0 0 0)
(0 0 0)
(0 0 0)
(0 0 0)
(0 0 0)
(0 0 0)
(0 0 0)
(0 0 0)
(0 0 0)
(0 0 0)
(0 0 0)
(0 0 0)
(0 0 0)
(0 0 0)
(0 0 0)
(0 0 0)
(0 0 0)
(0 0 0)
(0 0 0)
(0 0 0)
(0 0 0)
(0 0 0)
(0 0 0)
(0 0 0)
(0 0 0)
(0 0 0)
(0 0 0)
(0 0 0)
(0 0 0)
(0 0 0)
(0 0 0)
(0 0 0)
(0 0 0)
(0 0 0)
(0 0 0)
(0 0 0)
(0 0 0)
(0 0 0)
(0 0 0)
(0 0 0)
(0 0 0)
(0 0 0)
(0 0 0)
(0 0 0)
(0 0 0)
(0 0 0)
(0 0 0)
(0 0 0)
(0 0 0)
(0 0 0)
(0 0 0)
(0 0 0)
(0 0 0)
(0 0 0)
(0 0 0)
(0 0 0)
(0 0 0)
(0 0 0)
(0 0 0)
(0 0 0)
(0 0 0)
(0 0 0)
(0 0 0)
(0 0 0)
(0 0 0)
(0 0 0)
(0 0 0)
(0 0 0)
(0 0 0)
(0 0 0)
(0 0 0)
(0 0 0)
(0 0 0)
(0 0 0)
(0 0 0)
(0 0 0)
(0 0 0)
(0 0 0)
(0 0 0)
(0 0 0)
(0 0 0)
(0 0 0)
(0 0 0)
(0 0 0)
(0 0 0)
(0 0 0)
(0 0 0)
(0 0 0)
(0 0 0)
(0 0 0)
(0 0 0)
(0 0 0)
(0 0 0)
(0 0 0)
(0 0 0)
(0 0 0)
(0 0 0)
(0 0 0)
(0 0 0)
(0 0 0)
(0 0 0)
(0 0 0)
(0 0 0)
(0 0 0)
(0 0 0)
(0 0 0)
(0 0 0)
(-0.027260389219 0.000652061564763 0)
(-0.0595595288222 0.00141452541769 0)
(-0.0618857556304 0.00133833930526 0)
(-0.0124573737193 0.000212576934156 0)
(-0.0866636979093 0.00205824333919 0)
(-0.020165881971 0.000436106696802 0)
(-0.0187350736323 0.000448138187995 0)
(-0.0350046875612 0.000837303208029 0)
(-0.126099599386 0.00299483713217 0)
(-0.0795179918451 0.0017196534627 0)
(-0.0294136304422 0.000636098199498 0)
(-0.111282015023 0.00264292283527 0)
(-0.0396660457106 0.000948801707349 0)
(-0.0259267469057 0.000560690971418 0)
(-0.00480810301581 5.39067487474e-05 0)
(0 0 0)
(0 0 0)
(0 0 0)
(0 0 0)
(-0.00395302128324 4.56553085771e-05 0)
(0 0 0)
(-0.00868977217339 0.000155254538042 0)
(0 0 0)
(-0.0076242905576 0.000130103531319 0)
(0 0 0)
(-0.00984674924441 0.000175925498926 0)
(0 0 0)
(-0.00508420688168 5.8719904959e-05 0)
(-0.0350028522758 0.000837259308469 0)
(-0.126098137652 0.00299480241633 0)
(-0.0798770417199 0.00172741826342 0)
(-0.0294608997326 0.00063712044361 0)
(-0.111278709008 0.00264284431815 0)
(-0.0396649951728 0.000948776578752 0)
(-0.0260584079191 0.000563538268142 0)