/*--------------------------------*- C++ -*----------------------------------*\
| =========                 |                                                 |
| \\      /  F ield         | OpenFOAM: The Open Source CFD Toolbox           |
|  \\    /   O peration     | Version:  v1906                                 |
|   \\  /    A nd           | Web:      www.OpenFOAM.com                      |
|    \\/     M anipulation  |                                                 |
\*---------------------------------------------------------------------------*/
FoamFile
{
    version     2.0;
    format      ascii;
    class       surfaceScalarField;
    location    "0.9";
    object      alphaPhi0.water;
}
// * * * * * * * * * * * * * * * * * * * * * * * * * * * * * * * * * * * * * //

dimensions      [0 3 -1 0 0 0 0];
oriented        oriented;


internalField   nonuniform List<scalar> 
92311
(
0.200577171984
-0.000130497137097
0.000338743429373
-0.200564172059
-0.000221423419759
-0.000139637887649
0.200630150098
0.000299631180495
-0.000213358772059
0.200558540809
-0.000291730212282
0.000355922139139
-0.200537112635
-0.000216598111209
-0.000284008436211
0.200615894183
0.000298473544233
-0.000211982119682
0.200562283636
-0.000166612243485
-0.00016230212592
0.000356168793224
-0.200515194668
-0.000205369424441
-8.01813458581e-05
-8.07275147408e-05
-0.000132886385494
-0.000123833930069
-6.26723397477e-05
0.200578487357
0.00029648829193
-0.000212626246931
-6.47088313076e-05
0.0501438881443
-7.9694642791e-05
-3.22235866431e-05
-2.65728730537e-05
-9.17603559085e-05
7.97765227303e-05
-0.0501269911429
-3.29257739432e-05
-0.0501511353986
0.0501442681885
-6.59347192685e-06
-6.44817374489e-05
2.22232128376e-06
-7.26057250403e-05
6.45924163914e-05
-4.90932914478e-05
1.09739030786e-05
0.000292285233377
3.39962715109e-08
-0.000315553606982
4.45427206029e-06
-3.15448539837e-05
-0.000292445349269
2.87468256572e-07
-1.94965042251e-08
0.000445483764605
2.70325280031e-05
-2.32881393949e-09
-0.000377499752079
2.43513362895e-06
3.30923317727e-07
-0.000286309152329
9.75233148155e-06
-8.40796668938e-06
-2.9620732805e-10
1.24471908745e-10
3.07478104299e-13
2.89279793805e-11
-1.82937920257e-13
-1.46526860827e-11
-3.60956178581e-12
5.53842209534e-11
-7.03490124249e-05
-2.6257700631e-05
-8.04070173486e-05
-2.35859053232e-05
7.50008749377e-05
-4.38178433116e-05
0.000134719591465
0.0122330084498
0.000110363092808
3.54644533868e-07
-0.0120977923316
0.0120057063647
-4.12528317427e-06
3.43941440267e-05
-0.0120768215528
1.85255131945e-05
-4.88900376086e-06
-5.05312259059e-05
-5.66066529352e-05
0.0501311984015
-6.76327442568e-06
-4.87392756001e-05
-1.00769624571e-06
5.30261080469e-05
-3.88655687075e-05
0.0501288308026
1.76392401107e-05
-3.49226619671e-05
1.78894864719e-05
-0.0501490009624
-5.46415516189e-05
-1.16456739144e-05
0.000102293170623
0.0121310324408
0.000113600511334
-4.45808175011e-06
-1.23329003088e-05
0.0125405002047
1.85525285142e-05
-5.63746999842e-05
-0.0125467746669
0.0125384027675
-4.24762614209e-06
-4.12156598501e-05
-0.0125439320732
-0.000151087689091
0.200624929911
0.000596088725771
-0.000322050043063
-0.200748038889
0.200725049387
-0.000155495391034
0.000247811362593
-0.000187997492249
-0.000168029681306
0.200847522099
0.000200279893339
-0.00015564419023
-0.000215396839304
0.200659053133
0.000532216676778
-0.000345958489059
-0.200781375744
0.200718635433
-0.000319333656016
0.000248074578787
-0.000187756995897
-0.000351817604431
0.200851695756
0.000202284134285
-0.000152359073302
-0.000153473093148
-0.000163585487291
-4.28407289587e-05
0.000641344822933
0.200577514984
-0.000365526235273
-0.200684298201
-2.46600128052e-05
-0.000136481628813
-0.0001486590917
-8.69823689551e-05
-0.000132583809663
0.200704732257
0.000255291303255
-0.000195773076994
0.0501260910406
-2.00401965892e-05
-4.82441329227e-05
-6.30380689708e-05
-1.3278235259e-05
0.000153974657705
-0.0501465879903
-0.000142212001625
0.0501282104549
-5.55313270799e-05
2.75658156349e-06
-5.49126334292e-05
-8.19986484685e-06
-7.04157402289e-05
5.29516869845e-05
5.74073585941e-05
-1.25149955343e-09
0.000451846403625
1.10705940113e-05
-0.0002886210491
6.63557884766e-07
2.1071137488e-06
-3.48137424339e-05
-1.36720701309e-08
2.21035668333e-10
-1.22009592469e-10
3.2842514537e-10
1.05457432112e-10
-1.59944136699e-10
3.09764286599e-10
-2.43443566247e-08
-2.84272818209e-10
4.93381138111e-10
-1.78131203745e-08
-2.34738318778e-09
-1.37649722596e-10
1.16479632403e-10
-6.22243337282e-10
-0.000148263589831
-5.91569290255e-05
-2.48991653759e-05
-2.34390044989e-05
-7.17419839156e-05
0.050124235634
0.000165964678001
-6.26207975103e-06
-2.02731888561e-05
-4.66004211249e-05
-5.69585090891e-05
0.0501414497379
-7.7675690917e-05
-0.0501246897692
-5.8569611842e-06
5.06722314502e-05
0.0122409069125
7.8013584516e-05
5.77741651864e-07
-0.0121659861869
-2.79338938123e-06
2.2331626177e-05
-0.0121619660919
3.11072618943e-05
-2.36032675822e-06
0.0120883141627
3.13240960894e-06
0.0125105790082
2.66972035529e-05
-1.3857267268e-05
-0.0125327701255
-6.60307716351e-05
-6.08846943642e-05
-2.68223533096e-05
-1.74291842789e-05
-7.46392300091e-05
0.0501620523083
6.35291166452e-05
0.0501163828993
1.31887930705e-05
-4.90828085042e-05
-3.48138490311e-05
8.4846193865e-07
-6.00007953498e-05
-2.17554878603e-05
-3.46035477014e-05
-5.73688006858e-05
-7.38133432063e-05
0.0501631012958
-5.73812456365e-05
-1.36846282256e-05
1.99402706768e-06
4.28640616168e-05
0.0125121544038
-4.13970659017e-06
3.60410088032e-05
-0.0120863640293
3.40368924959e-05
0.0120049381719
-7.82954916344e-06
-2.67796489251e-05
5.5268197813e-05
0.0125094584651
-0.012529357213
9.3076635711e-06
0.012504692026
1.1091072355e-05
-1.71368729999e-05
0.000316113569846
-0.000327794911627
2.02856681414e-08
1.10065686394e-05
-2.98110746671e-05
1.33239031324e-05
6.3820616992e-09
-5.28092805924e-10
1.77646569261e-07
1.37700655087e-06
-0.000298052062151
9.37876181566e-06
0.00043557862614
4.36248973584e-05
-0.000370965104624
-2.60870243034e-10
2.24235749747e-10
-2.63917907511e-11
2.6840920285e-11
-1.02516642274e-11
1.61450807782e-10
-1.31244476906e-10
-5.41607292667e-11
3.45940463431e-07
-0.000335368834225
2.10035934498e-06
-1.53474563288e-05
2.12756670465e-05
-2.20043907706e-12
-6.70096878652e-12
6.65382003442e-13
9.04704604407e-06
0.0125583049073
1.35742070577e-05
-0.0125257760871
-0.0125155987305
-4.83852280074e-05
5.18936114781e-06
0.0125316879611
-5.12058915893e-06
-3.4439353076e-05
8.87698945057e-05
0.012349650716
-6.01990390849e-07
-1.34023898718e-05
0.0121099051863
-0.0123678549446
-1.18071485262e-05
-0.0125409200356
-5.66701811214e-06
0.0120579220162
-9.93074691349e-06
0.0125481754168
1.23707950991e-05
0.0125621413174
-0.000118239706798
2.52377483307e-05
-7.82369915127e-06
-1.66568806073e-05
-0.0125228478439
0.012533648068
1.39125881377e-05
-0.000118334208218
-1.41494756467e-05
-5.55239750792e-06
7.75221396568e-05
-0.0121921435694
0.0123245948683
-9.47520279071e-06
0.012552210494
-9.60895328943e-06
-1.00608634811e-05
1.26374276301e-05
-0.0125282509807
1.50622331048e-06
-3.15374916356e-06
0.0125330536578
-9.75552041405e-06
4.19895410845e-06
0.0125556984542
1.15906637069e-05
4.1176471989e-06
7.79606273406e-05
0.0122853952913
-5.43515862094e-06
-3.9848355209e-05
0.0120679521935
-2.67386000139e-06
-9.47454945797e-06
0.0119946080259
-2.43177347147e-06
0.0125489192168
9.19662455023e-06
6.82723931437e-06
-0.0125246078704
0.0125238800132
5.75898618157e-06
7.35809722573e-06
-0.0120843189708
0.0119859174622
-2.46423444586e-06
-0.0121080178886
3.76647921907e-06
0.012272747901
-6.76406812576e-05
1.68871950426e-05
-1.15486841853e-05
-8.89371997856e-05
-3.32471392971e-05
-2.68663984596e-06
-1.06023097701e-06
7.16640191073e-06
2.79039308637e-05
-0.0125202119191
0.0125187678546
-1.30019897828e-05
6.33113932872e-06
-0.0121238894335
0.0122785298143
-0.0121084252742
0.0120411940501
1.23555948672e-05
-3.09349549849e-06
-5.56396248623e-05
-0.0125314531396
-5.680011942e-05
-9.68474401822e-05
-0.0123084876871
1.34897847673e-05
-0.0125501474587
-1.18076044858e-05
-0.0120131163652
4.26802262912e-07
-7.26069345954e-05
-0.000265553277115
4.22439432336e-06
-1.41941832843e-05
8.50180664174e-06
0.000304613830556
-0.000325444141505
3.03024428646e-05
2.59252328018e-09
9.90468116733e-09
3.06945761466e-09
-2.99294389114e-08
0.000328985686767
-8.72821857353e-12
-1.47740781405e-06
-0.000239509045592
1.81224560218e-06
-5.69958759481e-05
7.39252818786e-05
-0.000354988435189
9.98417069133e-08
-0.000267220283813
-1.62635765306e-05
7.43398912301e-06
0.000315581126238
-5.81674318731e-05
-1.98974052772e-10
-2.8704695486e-12
-3.70402125739e-11
5.65449405492e-11
2.045943036e-11
-1.29474685058e-13
-5.40023585178e-09
0.000450170033665
-0.000296124425217
8.53956892279e-06
3.81008260538e-07
2.21588472024e-06
6.13703271958e-05
-4.13305559986e-10
1.82831324602e-08
3.13603594637e-09
-6.25918665923e-10
-1.45036880344e-09
4.80295723308e-07
-7.76064976897e-05
-0.000257828234889
4.46268082509e-06
-6.30033295564e-06
1.05150213374e-05
0.00037738211041
5.61967365961e-05
-3.09000694985e-09
3.624287633e-08
-2.2651667431e-09
2.01906362106e-07
-0.000281226805063
1.21137571696e-07
1.02916393342e-05
0.000393069844404
-6.01750640838e-05
-4.4555446342e-12
-3.20712089312e-12
4.2372425563e-05
-0.012513528448
-2.15096476417e-05
0.0125225320389
-4.9900184635e-05
0.0125398910123
-3.36355724506e-05
2.50586638255e-05
-0.012528859854
4.42192375368e-05
-1.35626672913e-05
0.0123488136972
-1.72031416772e-06
-2.37005550701e-05
0.0121998442313
-0.0123534185699
-2.373174261e-06
0.0125361294931
2.73849738501e-05
-0.0125338558064
-5.02525093842e-05
0.0121402742755
-5.24434511625e-06
5.69484289922e-05
0.0125462418324
-8.81774246269e-05
-5.15819071316e-05
-0.0125162920507
-4.49872906315e-05
3.59408511152e-05
0.0125228075589
-2.13523301898e-05
-8.46802845921e-05
-6.60080694322e-06
5.61969723226e-05
-0.0122396900332
-4.20397798247e-07
0.0123397133793
3.21042568292e-05
-5.26409636605e-05
0.0125385687015
-3.62573123291e-06
0.0121589472531
-9.81196711044e-05
5.12389080629e-06
-0.012380920806
5.983122552e-05
3.34111494181e-05
0.0121008627708
1.00669698477e-06
3.89783709818e-05
0.0125258065235
-1.44571499392e-05
0.0125454509617
-9.6333105405e-05
-0.0125202905231
6.30108382808e-05
-0.0122541714795
0.0123567684727
0.0125381821043
-0.0121455104367
-7.50644426874e-05
0.0125385096681
7.68013288438e-06
9.78033894282e-05
0.0121018110741
-2.58163487941e-07
0.0120935306522
5.93378352824e-06
3.38426077957e-06
-1.47111065162e-06
0.0125163291315
-1.43102281903e-05
7.08340694245e-05
6.6221425557e-06
0.0122804582247
-3.80764350283e-06
0.0125344740716
8.30349009435e-06
0.0120288760573
3.12554443093e-06
2.78704675743e-05
0.0125465255213
-9.85248064122e-05
-2.02071558838e-05
-0.0125160192673
-2.03988653679e-05
0.0125299923334
1.56393480978e-05
-1.61601338837e-05
-8.90512908131e-05
-9.10294659171e-06
7.3028485769e-05
-0.0121569809301
5.98368624792e-06
0.0123035041058
1.26687554495e-05
-2.1206721022e-05
0.0125459061259
1.20479848401e-08
-0.0125316525493
-5.3904396125e-05
2.38626274766e-05
-1.66857957876e-05
-5.75671898172e-05
-1.67206487877e-05
-8.61625564633e-05
0.0120972646586
0.0121540187456
5.95076614684e-06
-1.03803107156e-05
0.0123090707454
1.08737449686e-05
8.59053982917e-06
0.0125113242059
0.0120451734771
0.0121112651244
-9.97743508491e-05
1.25912365781e-05
6.53237260032e-05
3.07299292974e-05
0.0120639019488
4.22047632899e-06
2.54739806818e-05
0.0125270691735
-1.73107924714e-05
0.0125427772544
-9.77446848921e-05
6.91484479348e-05
-0.0121742746964
0.0123048556241
0.0125425266787
-0.000152777136028
-0.000146848147785
-0.000144607210612
0.000214820859296
0.200871482013
-0.000134922977275
-0.000153814683514
-6.94562114363e-05
-3.00771618809e-05
-6.84416227408e-05
-7.52881204706e-05
-1.73375221073e-05
6.87226112898e-05
0.0502011849871
1.22416797423e-05
7.23596484881e-05
-2.84698885672e-11
-1.32591171905e-05
-0.000335509369162
4.41088298189e-06
-6.33537134152e-05
0.000383699194321
1.34483560663e-10
-2.0157137104e-08
-1.03853872815e-09
1.76947197018e-10
-1.88354790154e-10
-4.25046490279e-10
-7.08701595997e-11
-1.25610525541e-05
-6.0202844313e-05
-1.51792392215e-07
-6.79461414061e-05
6.28811089531e-05
0.000146368000265
0.050152989751
-1.07786175538e-05
0.00013132402489
0.000115489355158
0.0122328275985
0.0502161560319
-3.26789837865e-05
-7.82811054227e-05
-2.08213494101e-05
-8.74867584429e-05
-4.98537658814e-05
0.0502366164953
-7.38220827796e-05
-2.97409154973e-05
-7.58649138895e-05
-8.42148411107e-06
5.99804846778e-05
-3.68835860789e-05
0.000114739721878
0.0121433676655
0.00012874700637
-6.30993618292e-06
-1.16740770929e-05
0.000155356011225
0.000124405811283
0.0122200551946
-2.21728778436e-06
0.0119190244109
-6.15523436583e-06
4.90220072538e-05
2.91693073559e-05
-0.0119244698605
-7.76845673476e-06
0.0502472937573
-1.07733455276e-05
-8.0029831795e-05
1.08050955828e-05
-8.48972669362e-05
0.000129554035882
5.31012515032e-05
-2.81521130061e-05
-5.90538204585e-05
-1.8893127384e-05
-6.15917924887e-05
4.57521106412e-06
0.000114442478374
3.96560081432e-05
0.0502491993846
-2.06435621508e-05
-1.70629121387e-05
0.000155455819883
0.000145364765879
0.0120999580023
-1.93106513646e-06
-5.32999214175e-06
2.55017986678e-05
1.77510992695e-05
-0.0118933216671
0.0119021977947
-6.33904499371e-06
-0.000318450319379
1.43477231821e-08
4.00702860024e-06
-6.0434296094e-05
0.000297554454416
3.31099464852e-07
0.00036365594014
5.53392246629e-07
-0.000341444999807
-1.16643670284e-05
6.05598755029e-06
3.38136570986e-05
1.92960541675e-07
0.000410588108771
-1.86381832827e-05
-0.00042071279208
1.36620833457e-05
-5.52571103604e-05
8.14268809467e-06
-2.08766519673e-09
2.22173322515e-11
3.99967198301e-11
2.67938115679e-08
-2.57496029536e-09
4.85896406416e-10
6.99824919006e-09
-3.20978640102e-09
0.000449403718183
-0.00040840390399
2.31979148714e-07
5.16417530983e-06
-3.21835106989e-05
2.3998967482e-07
-4.92447434247e-06
-1.79097861868e-06
-0.000400526160402
1.41267281029e-05
-2.40602273168e-05
3.88245809433e-07
0.000468464224143
-2.21360387972e-05
-0.0125169887399
-3.7036752446e-05
-3.55068566084e-05
4.94304015565e-05
0.0125275452135
5.23975428653e-05
0.0125580985365
-2.11952807698e-05
0.0121027066572
8.85242535951e-07
-2.60085428257e-05
8.28402492692e-05
0.0123440175995
5.20633010612e-05
1.80344698617e-06
0.0120403400182
0.0125496231252
2.24836099178e-05
-0.0125222927753
-4.86194977831e-05
-2.34922075265e-05
0.0125418140323
0.0125638240305
-7.09707279707e-06
1.95773050298e-05
6.99259760973e-05
-1.51084718233e-05
-1.35805518822e-05
0.0122767769704
-2.22772449257e-05
0.0120289176719
1.01596567147e-05
1.94116165807e-05
0.0125615335754
-2.33436159795e-05
3.15858180336e-06
0.0119802378347
-0.0125224211266
-5.87596012023e-05
-1.78356724956e-05
0.0125426896023
4.25372271138e-05
0.0125758475498
-1.4404003313e-05
-1.88222140133e-05
0.0120161342976
-4.4976807209e-05
8.47537720613e-05
0.0123191903153
-8.15803638936e-07
0.0119875049533
0.012568285897
-1.29757867871e-05
0.0125827901033
-0.000143538905923
8.20548820505e-06
2.18749256342e-05
1.25447806096e-05
-0.0125345292538
0.0125493324673
-8.64320219854e-06
7.67593377619e-05
-0.0121503489873
0.0122792241732
-1.03483952605e-05
-0.000148412415362
-4.34147855978e-05
-5.61482174933e-06
0.0125755937879
2.09807464493e-05
-5.40294625587e-06
-1.00947806114e-05
-0.0125437887833
-1.77809565041e-05
-1.77328627161e-05
0.0125520096669
1.65134835843e-05
3.96241252575e-05
0.0125908437769
-5.53612937808e-06
-6.25954315933e-05
0.011928553383
-1.30551055699e-06
-1.79662901926e-05
8.62802699742e-05
0.0122534244466
-2.36812506763e-06
1.97536374895e-05
0.0119251891119
2.13961088084e-06
0.0125798726365
-5.09923401443e-06
0.0125840749224
-0.000118591766458
1.42048645584e-05
1.3727302831e-05
2.79464070512e-06
-0.0125435319353
0.0125499014766
-3.12543302948e-06
6.56032760705e-05
-0.0120869332706
-2.03247837657e-06
0.0122267899057
-0.000133560573255
-5.95396162655e-05
-9.12021833924e-06
1.41587674746e-05
0.0125771034077
-9.1839631517e-07
-4.63481233666e-06
-0.000308580628903
-0.049632073594
0.0495772375237
0.00032407450095
1.6037752461e-05
5.08994640526e-05
4.19349581198e-05
1.83992449084e-05
-8.78904084353e-05
-0.000311240720701
0.0498771776891
-7.22330542846e-06
1.35277466759e-05
1.04149475572e-05
1.26890663253e-06
2.62509461752e-05
-0.0498528571314
0.000242678077748
-0.000498659098475
-0.0499865931386
0.0501615008566
0.000364225511692
-4.09621609758e-05
-3.88789907202e-05
-4.4347541276e-05
-4.37136204882e-05
0.000127403989402
-0.000266721132088
-4.05960712413e-05
-4.10799892221e-05
-4.45479009463e-05
-4.1596583251e-05
0.000130773443807
0.0501700300681
0.000199432548113
-0.0500657369627
-8.13959413162e-05
-9.9628839779e-05
-0.000370366012965
0.000377311746104
0.000156088991811
-1.16006717671e-08
-7.23382468763e-05
1.22163866696e-07
2.39559573296e-07
-2.25006264345e-05
-0.000364079924215
0.000399088427373
0.000207471456126
-4.58846214302e-09
-2.86363125198e-05
3.09964268777e-07
5.06059642666e-07
-0.000149311230135
-2.45132062513e-05
-0.000129033060649
0.000356592985201
-1.0275820252e-08
-3.57610751109e-05
-2.41240720033e-05
4.62859919509e-08
-0.000334970593262
0.000117964465599
7.35178541464e-08
-0.000172307258147
-0.000299303252321
0.00025851894911
0.000130686702631
1.32148197532e-07
-7.48366413694e-06
1.3498555171e-07
4.46428978269e-07
6.80319124113e-07
-7.02278304584e-05
-2.57549183116e-05
-6.7130405527e-05
7.74321478045e-07
0.000148143884339
1.52956112965e-05
3.58134076656e-07
-0.000197220266597
1.42784855798e-11
-8.34549290099e-11
1.36894964275e-11
1.45950122472e-09
4.59361310805e-10
7.40023123629e-11
4.67312558341e-12
-3.71712857115e-11
-2.59323910799e-12
1.05175042355e-11
1.3782427684e-11
6.59095588341e-12
4.59383739125e-12
-2.67147712153e-12
-1.40987673826e-13
3.67618574968e-11
-7.2404278266e-10
3.66278025589e-09
1.29300268454e-09
-9.83160501394e-09
3.62306602157e-10
3.52724428117e-11
-6.29837277747e-10
1.73524531959e-09
1.72268367093e-09
1.02870930807e-12
-2.14745636885e-10
-4.42646617695e-11
2.16620665756e-10
-5.70109415854e-10
-8.97405673355e-09
-1.3506352338e-08
1.59296940128e-10
-4.68867360677e-10
-1.89462154729e-08
-1.07670661527e-09
-2.18298560317e-09
-1.66880742791e-08
-7.65297776946e-09
4.74727332247e-11
-2.55558548921e-11
0.000121666191531
2.79129388053e-05
5.34636342305e-05
2.796776246e-05
4.63472571039e-05
0.0494552992002
-0.00011042191271
-1.56041176786e-05
-0.0496066768528
0.049531822406
0.000188040599224
4.87852837498e-05
4.87290952612e-05
5.00390152316e-05
4.67628544007e-05
-0.000147997050119
-0.0496445311332
7.40905109023e-05
-6.63236365854e-05
-0.0123477935953
-1.82514854388e-06
0.0123413351535
4.77379425264e-06
0.012346425926
4.80263232345e-05
4.04439615474e-05
-5.05125074042e-05
-3.14824888204e-05
-0.0123456210511
5.19734184736e-05
5.27957576673e-05
4.93307111888e-05
5.17662125764e-05
-0.000188438047649
0.0123631419091
0.0123451525777
0.0123224349708
0.0123615164236
-0.000186472127931
5.77170985285e-05
2.65237085783e-05
-4.81462139108e-05
-4.04148023295e-05
0.012361749434
0.000202914203628
2.79784690281e-05
5.5344519907e-05
4.85329009478e-05
2.79274629161e-05
-9.41193262662e-05
-0.0497126208295
0.0497381821916
4.02284447177e-05
3.34083816748e-05
4.08979005307e-05
3.38703983113e-05
-0.000136979235851
-0.0497673422079
0.000220641884216
0.0123489792364
9.76855807142e-05
-8.11391105316e-05
-0.0123505581218
3.99091845554e-05
0.012393552495
2.37787083962e-05
-2.76738767064e-05
-5.50524793408e-05
-0.0123849217241
5.76717352996e-05
0.00045640553996
2.10958824289e-05
4.1922760187e-05
3.8048837605e-05
1.76542711537e-05
0.0496386985747
-0.000127837835349
-0.00011298306497
-0.000132989376528
-0.000109811715459
-4.12615988328e-05
-4.14322184482e-05
-3.67538084972e-05
-3.35452970493e-05
0.049746639639
2.34456201879e-05
2.82442412855e-05
2.97953565239e-05
2.4539190492e-05
-0.000101620100958
0.0498475904767
0.000403262648853
1.53580039878e-05
1.11895624491e-05
5.65266381699e-06
1.35564483513e-05
-9.35468202175e-05
-7.76816040303e-05
0.0123583140987
5.11618416423e-05
0.0124051435426
4.60489187088e-05
-5.00470118601e-05
-0.0123887149162
9.04513208724e-05
-9.49283440819e-05
6.81738591662e-05
5.03089970365e-06
-1.93698318604e-05
-5.97845862906e-05
0.0124150706712
0.0124567731441
0.000102900805774
-4.0307204965e-07
1.88645733119e-05
-9.95387955162e-05
-0.0124447762999
0.0501154542355
5.61330107344e-07
9.65924676334e-06
9.35040280237e-06
3.66102756629e-06
-0.000649578104662
-0.000140079791014
0.000587888168536
-8.96228802927e-06
-6.65681209811e-06
6.75255799735e-06
-2.67088179844e-05
0.0505880108234
-0.000196478678768
-0.00082816630778
-4.30676472648e-05
0.0124283582746
0.00011141696669
-0.000109763092173
-1.18928557993e-06
1.07524212256e-05
-0.0124532278964
0.000178455728425
0.0124813710127
-0.000160191290504
0.000119267916108
-6.66412077133e-07
2.78203299596e-05
-0.000114454747606
0.0124675344977
0.000116936200275
-1.96994944432e-06
7.0901864459e-05
-9.12100951319e-05
-0.0124339029423
0.0124294852313
0.000300885445959
-2.6423657391e-05
-1.94460272695e-05
-6.03333895464e-06
-3.34525524896e-05
7.83276677062e-05
0.050023393824
6.44760330854e-06
-3.92642832366e-06
8.04866964908e-07
4.50885829065e-06
-5.93262516237e-05
-0.0499151983574
0.000244130363847
-3.08216391256e-05
0.0124201568387
6.62480235257e-05
-0.01240340173
0.0124747460898
-3.45695126156e-08
8.48939747948e-06
-0.0124520845171
8.54754599835e-05
0.0124732338967
-3.00919263647e-07
3.03443290838e-05
-6.00219889072e-05
-0.0124715329266
5.62832996254e-05
0.000381291831042
-4.39223982646e-05
-4.57545389207e-05
-4.4019792038e-05
-4.57424763135e-05
0.0504155897143
0.000132023385865
0.0501544232854
-6.66079948609e-06
-3.2726020536e-06
1.80279876002e-07
6.18125048419e-07
-2.44507818841e-05
-6.48166868574e-06
-5.40573132668e-06
4.71903690061e-06
-3.78183378932e-06
0.0502979460286
0.000279254707882
-3.05353708153e-05
2.44076083488e-05
0.0124838856916
9.34862336912e-05
-1.23824002961e-06
4.95226783369e-05
-0.0124461452668
0.000123735616299
0.0124405572531
6.10226080759e-05
-5.55547870791e-07
3.47313210155e-05
-5.62705717542e-05
0.0124851427254
5.39254070973e-05
-1.78129484079e-06
4.21629112186e-05
-3.26117991984e-05
-0.0123794495171
0.0123628562016
4.81388464146e-05
0.0124841231468
6.44864923825e-05
-0.0124691115072
3.24430496878e-05
-0.0123676163269
0.0123331035793
-1.44775246292e-06
6.7126151885e-05
3.27592852066e-07
-6.8018316715e-05
-1.02560621546e-05
-3.49398526457e-06
0.000332879875906
3.92290756143e-05
-0.00032504818523
-6.18120336192e-09
0.000356500927611
6.13024628221e-05
-4.88340866346e-05
-5.07539329365e-05
-3.80493056213e-05
-0.000323042733087
-2.26278883268e-09
-1.05565060769e-09
-3.20325625824e-05
-3.14285130636e-05
-2.49546360474e-05
-2.15260720326e-05
0.000372255496102
4.08998551838e-09
4.0409680227e-09
3.04978424611e-08
-5.44464133638e-11
-7.12823701419e-09
1.30469655708e-11
1.04135320783e-11
3.33651405736e-09
2.24917410148e-11
2.00654081387e-11
3.14514233735e-11
-1.9741230328e-10
3.28819202716e-12
-3.29787010353e-12
1.00709900102e-10
4.87446549323e-13
-1.72826554177e-13
1.79664563324e-11
6.05316219115e-14
-7.60697302811e-13
7.52362843998e-13
2.42629626655e-11
1.97840415552e-13
4.77717019343e-12
-5.9402114617e-12
1.1765391718e-10
-4.16984814885e-11
1.87553844278e-11
3.57738938779e-10
9.82455359886e-05
-0.000101524937695
-2.19118389228e-05
-1.57174257573e-05
-1.04822677927e-10
-0.000340117586957
0.0003691556615
-4.34256181447e-05
-4.48354725244e-05
-2.36840452661e-05
-0.000331217823513
-6.29509942961e-09
9.05119853585e-05
0.000205941298957
-2.42627729552e-09
-3.96116544352e-05
2.48367969101e-07
2.20442899756e-07
-0.00014035036458
0.000365209979729
1.14569093299e-07
-3.95801275331e-05
3.26357369175e-08
-1.30765765655e-05
2.28802405027e-09
0.000325553017714
0.000167570154024
2.14954308277e-07
2.04634721217e-07
3.50227353711e-08
6.85282229952e-10
1.47918070739e-09
-2.50627118697e-11
-4.24668853551e-10
1.14618390341e-10
2.14340929764e-08
5.77340938607e-09
-1.53708803715e-08
4.04710272152e-09
-4.53728671628e-09
0.000194681293521
-4.73155865118e-09
-5.42371606748e-05
8.41333518532e-07
1.57544710716e-06
0.000390545922173
-0.000154809940074
0.000323451972301
-7.52875779239e-09
3.16782097515e-07
5.60521749365e-07
6.21469976489e-07
2.78436506858e-08
0.000153973682063
6.80991934962e-07
-2.70523022133e-05
1.34130726131e-06
0.000331595288993
1.94530071904e-10
-4.67732673361e-09
-1.10383857222e-09
3.73904467448e-10
7.86481101868e-09
-3.59731136469e-09
-5.61002399671e-09
5.64198905416e-09
0.000153370842803
1.51469501305e-07
-2.80109891386e-05
3.94954113275e-07
3.04010704296e-07
3.70621754264e-07
0.000228621409775
-2.51907321825e-06
-1.06259584935e-05
3.25068522636e-07
-0.00030554053375
7.91504289416e-05
1.16371546481e-08
-9.3125822437e-09
5.93774575761e-10
-8.9934407937e-09
1.20155407373e-08
2.03107857874e-08
-2.64620615987e-08
-3.88137265667e-09
0.000110632681341
1.41345167082e-07
-4.09193294742e-05
-1.88537749755e-07
1.2941699405e-06
0.000259129507748
0.000191442424776
3.44775000915e-07
-1.59959742409e-05
8.10007819456e-08
4.89784506718e-07
2.52543962439e-07
-1.69408870144e-05
-9.39292563632e-05
1.03814219804e-06
0.00022874611501
4.71790297717e-05
4.19521592841e-09
-1.52996605394e-08
-1.16048310091e-08
1.06684177522e-08
2.64280318219e-08
-6.86477372357e-09
1.09306970494e-08
-4.56780974467e-09
0.0123882560285
2.02014525863e-05
-1.00278775925e-05
2.9657006202e-05
-0.0124001787622
1.05535208946e-05
-0.0123875117687
0.0123702963666
-6.21810258546e-06
-5.27356336996e-06
-5.78454355863e-05
6.65264578645e-06
-0.0123549074759
-1.68762228694e-05
-0.0123572747143
1.71546856289e-05
0.0123501968877
3.59297376069e-05
0.0123739319555
1.02610269709e-05
-0.0123401845972
-7.38343274e-06
-0.012401665851
0.0123940619429
4.20239909191e-05
5.16105927306e-05
-0.012409254036
-4.82175111036e-05
-0.012401532442
0.0123901844621
5.77824136207e-05
-5.24077840566e-05
-0.0123505458098
0.0123432747355
-5.36669147199e-05
-2.86916962598e-05
3.85688112201e-05
-0.0123523382465
0.0123793879071
4.87795869458e-05
-0.0124151960351
-0.0123478654621
-0.0123698756616
6.97505772782e-05
4.39370421968e-05
-4.99587581789e-05
0.0123581050635
-5.69606575721e-05
0.0123814112977
7.03649239464e-05
-4.38124657627e-05
0.0123454467105
-2.51460849881e-05
-4.4393233471e-05
-5.19862009325e-05
6.93590052526e-05
0.0123663946601
-4.19661572826e-05
8.30841564913e-05
0.0123754157972
-3.20706526962e-05
0.0123557125786
-3.2803076264e-05
0.0124199745155
3.18959051643e-05
3.81441786276e-05
-0.0124292208521
-0.0124122119388
4.23185209099e-05
0.0124018870799
-7.76199883908e-05
2.62960476238e-05
-0.0123600748726
-2.72694501549e-05
-0.0123751883318
5.38140660168e-05
0.0123750011973
-0.0124253236031
4.9427921611e-05
0.0124135164092
4.12297865622e-05
-0.0123592781774
0.0124297963824
4.42512842975e-05
4.15678927524e-05
-0.0124372405166
-5.20292907061e-05
-0.0124386214091
0.0124351219661
6.12703709317e-05
-4.30748665281e-05
-0.0123865053622
0.0123890593689
-3.62555145412e-05
-5.65172863987e-05
-0.0123898539746
5.35655260084e-05
0.0124250278709
-0.0124468858772
5.01376926304e-05
-0.0123747912287
-6.45421946678e-05
-0.0124093450207
1.1691055187e-05
0.0124069129772
7.13154265206e-05
0.0123929946884
5.24756841843e-05
-6.34753293661e-05
5.94957559297e-05
0.0123676184447
-1.63142573862e-05
0.0123868261926
6.7017518538e-05
0.0123899980637
5.87361994298e-05
0.0123990350365
8.08612064737e-05
-8.25354812974e-05
0.0124146472235
1.02006220274e-05
8.56336257405e-05
-0.0123978823386
9.69352526288e-05
0.0124078010633
-0.000114983760102
-4.52119111485e-05
7.81054429208e-05
-8.13886860166e-05
-3.77050954149e-06
-0.0124144598663
0.000105307107237
0.0124212015556
-9.75972821517e-05
0.000101666483098
0.0124237504159
9.47584012433e-05
-0.0124195554414
7.63937509059e-05
1.53745117875e-05
0.012422523775
-6.22672705698e-05
0.0124315504052
7.47187710808e-05
-3.17565522081e-05
0.0123942371537
-8.9835590094e-06
-7.64438761966e-05
0.0124347132604
8.14386420642e-05
0.0124360147219
8.74754448783e-05
0.0124153961095
0.0124329561489
8.97035597439e-05
8.15797683516e-07
-0.000103599577069
-0.0124457184984
0.0124638264668
0.000115557248777
1.56632576114e-05
-0.0124403155232
0.0124508547075
7.40470991195e-06
-9.05094792294e-05
9.16584760668e-05
0.012452292994
0.000100950309628
-0.000136086295992
-0.0124517059937
-1.95383915156e-06
0.0124831708109
0.000141962389427
-3.54324872364e-05
0.0124354143859
0.000121293658509
-5.6242345269e-05
-0.000135764923681
-3.82506049829e-05
0.000119021571517
0.0124503128083
-0.000128247039408
-3.20419930572e-06
0.0124279091125
0.000120754084582
0.0124734970172
-5.50673952382e-05
-0.000157384576028
0.000121262007776
-3.12160351776e-05
0.0124450328697
0.000131097704725
-0.000148409471827
-3.169465484e-05
0.0125550341265
0.000160381747416
-5.20915262017e-05
-0.0125437559967
0.000165695076867
0.0126348596311
-0.000178345800071
-6.76118439182e-05
-3.75983664049e-05
0.000117466177591
-0.000144132331213
-0.0124892267073
3.02282664826e-05
0.00014461751167
0.0125208720899
-0.000170029720663
-8.60798689927e-05
0.000139457402027
0.000169084417716
0.0126317259914
-4.96234605878e-05
-0.0124793488138
0.000135641821567
-2.52735122175e-05
0.0125114726612
-0.00011692288577
0.0124878835694
0.000130350781558
1.34053071345e-05
0.0124565937529
3.14105039803e-05
-0.000130801532259
0.0124679341621
0.000124587344488
0.0125157436147
0.00014290607862
0.012470173929
0.000144551613569
-4.94679372131e-05
0.0125679647144
-0.0125484410048
-0.000139142917492
0.000151447012266
0.0126004270925
-0.0125096689217
5.9614637333e-05
0.0125214089429
2.74825737396e-05
-0.000148859651178
0.000118379455817
0.000146240165473
0.0126309865497
-6.6798241541e-05
-0.0124571477651
1.49170464271e-07
0.0124626513918
5.39135685325e-05
0.0124475241896
5.99136474855e-05
-0.0124499855097
-2.47582442608e-05
6.43503956912e-05
0.0124359772015
-1.16608963317e-05
0.0124133215647
-0.0124124700098
5.2980530684e-05
0.0124538802235
-0.0124582807869
5.06922190416e-05
0.0124255921975
5.48153427203e-05
-7.47597208139e-05
0.0124713928394
-2.09776423299e-05
6.06200722233e-05