/*--------------------------------*- C++ -*----------------------------------*\
| =========                 |                                                 |
| \\      /  F ield         | OpenFOAM: The Open Source CFD Toolbox           |
|  \\    /   O peration     | Version:  v1906                                 |
|   \\  /    A nd           | Web:      www.OpenFOAM.com                      |
|    \\/     M anipulation  |                                                 |
\*---------------------------------------------------------------------------*/
FoamFile
{
    version     2.0;
    format      ascii;
    class       volVectorField;
    location    "5.8";
    object      force.turbine;
}
// * * * * * * * * * * * * * * * * * * * * * * * * * * * * * * * * * * * * * //

dimensions      [1 -2 -2 0 0 0 0];


internalField   nonuniform List<vector> 
28582
(
(0 0 0)
(0 0 0)
(0 0 0)
(0 0 0)
(0 0 0)
(0 0 0)
(0 0 0)
(0 0 0)
(0 0 0)
(0 0 0)
(0 0 0)
(0 0 0)
(0 0 0)
(0 0 0)
(0 0 0)
(0 0 0)
(0 0 0)
(0 0 0)
(0 0 0)
(0 0 0)
(0 0 0)
(0 0 0)
(0 0 0)
(0 0 0)
(0 0 0)
(0 0 0)
(0 0 0)
(0 0 0)
(0 0 0)
(0 0 0)
(0 0 0)
(0 0 0)
(0 0 0)
(0 0 0)
(0 0 0)
(0 0 0)
(0 0 0)
(0 0 0)
(0 0 0)
(0 0 0)
(0 0 0)
(0 0 0)
(0 0 0)
(0 0 0)
(0 0 0)
(0 0 0)
(0 0 0)
(0 0 0)
(0 0 0)
(0 0 0)
(0 0 0)
(0 0 0)
(0 0 0)
(0 0 0)
(0 0 0)
(0 0 0)
(0 0 0)
(0 0 0)
(0 0 0)
(0 0 0)
(0 0 0)
(0 0 0)
(0 0 0)
(0 0 0)
(0 0 0)
(0 0 0)
(0 0 0)
(0 0 0)
(0 0 0)
(0 0 0)
(0 0 0)
(0 0 0)
(0 0 0)
(0 0 0)
(0 0 0)
(0 0 0)
(0 0 0)
(0 0 0)
(0 0 0)
(0 0 0)
(0 0 0)
(0 0 0)
(0 0 0)
(0 0 0)
(0 0 0)
(0 0 0)
(0 0 0)
(0 0 0)
(0 0 0)
(0 0 0)
(0 0 0)
(0 0 0)
(0 0 0)
(0 0 0)
(0 0 0)
(0 0 0)
(0 0 0)
(0 0 0)
(0 0 0)
(0 0 0)
(0 0 0)
(0 0 0)
(0 0 0)
(0 0 0)
(0 0 0)
(0 0 0)
(0 0 0)
(0 0 0)
(0 0 0)
(0 0 0)
(0 0 0)
(0 0 0)
(0 0 0)
(0 0 0)
(0 0 0)
(0 0 0)
(0 0 0)
(0 0 0)
(0 0 0)
(0 0 0)
(0 0 0)
(0 0 0)
(0 0 0)
(0 0 0)
(0 0 0)
(0 0 0)
(0 0 0)
(0 0 0)
(0 0 0)
(0 0 0)
(0 0 0)
(0 0 0)
(0 0 0)
(0 0 0)
(0 0 0)
(0 0 0)
(0 0 0)
(0 0 0)
(0 0 0)
(0 0 0)
(0 0 0)
(0 0 0)
(0 0 0)
(0 0 0)
(0 0 0)
(0 0 0)
(0 0 0)
(0 0 0)
(0 0 0)
(0 0 0)
(0 0 0)
(0 0 0)
(0 0 0)
(0 0 0)
(0 0 0)
(0 0 0)
(0 0 0)
(0 0 0)
(0 0 0)
(0 0 0)
(0 0 0)
(0 0 0)
(0 0 0)
(0 0 0)
(0 0 0)
(0 0 0)
(0 0 0)
(0 0 0)
(0 0 0)
(0 0 0)
(0 0 0)
(0 0 0)
(0 0 0)
(0 0 0)
(0 0 0)
(0 0 0)
(0 0 0)
(0 0 0)
(0 0 0)
(0 0 0)
(0 0 0)
(0 0 0)
(0 0 0)
(0 0 0)
(0 0 0)
(0 0 0)
(0 0 0)
(0 0 0)
(0 0 0)
(0 0 0)
(0 0 0)
(0 0 0)
(0 0 0)
(0 0 0)
(0 0 0)
(0 0 0)
(0 0 0)
(0 0 0)
(0 0 0)
(0 0 0)
(0 0 0)
(0 0 0)
(0 0 0)
(0 0 0)
(0 0 0)
(0 0 0)
(0 0 0)
(0 0 0)
(0 0 0)
(0 0 0)
(0 0 0)
(0 0 0)
(0 0 0)
(0 0 0)
(0 0 0)
(0 0 0)
(0 0 0)
(-0.00191593328222 3.25433101722e-05 0)
(0 0 0)
(0 0 0)
(0 0 0)
(0 0 0)
(-2.64044792993e-05 2.31658450824e-07 0)
(0 0 0)
(-2.68631945361e-06 2.12345480031e-08 0)
(0 0 0)
(0 0 0)
(0 0 0)
(0 0 0)
(0 0 0)
(0 0 0)
(0 0 0)
(0 0 0)
(0 0 0)
(0 0 0)
(0 0 0)
(0 0 0)
(-0.0162582725922 0.000469716297313 0)
(0 0 0)
(0 0 0)
(0 0 0)
(-0.0302092942316 0.000625104031876 0)
(0 0 0)
(0 0 0)
(-0.0288416467589 0.000812318766036 0)
(-0.129259545673 0.00364056725045 0)
(-0.0820375215537 0.00169755655644 0)
(-0.787272005445 0.0162652041988 0)
(-0.00609755712949 5.88416523006e-05 0)
(-0.0810430678045 0.00167697888113 0)
(0 0 0)
(0 0 0)
(0 0 0)
(0 0 0)
(0 0 0)
(-0.0162582724981 0.000469716294592 0)
(0 0 0)
(0 0 0)
(0 0 0)
(-0.0297599631434 0.000615806274944 0)
(0 0 0)
(0 0 0)
(0 0 0)
(0 0 0)
(0 0 0)
(0 0 0)
(0 0 0)
(0 0 0)
(-1.54355704746e-05 1.41135453404e-07 0)
(0 0 0)
(-9.52782092936e-06 8.71178249637e-08 0)
(-0.000139239640668 1.87659998468e-06 0)
(-0.000776253133527 1.04619389385e-05 0)
(-8.80271786956e-05 1.18638486425e-06 0)
(-0.000474397829598 6.39368900613e-06 0)
(0 0 0)
(0 0 0)
(-0.00019743435427 1.86118361598e-06 0)
(0 0 0)
(0 0 0)
(0 0 0)
(0 0 0)
(0 0 0)
(0 0 0)
(-0.00855208358203 0.000145262421824 0)
(-0.00042457859566 6.00758400169e-06 0)
(-0.00201094525245 3.41571471706e-05 0)
(-3.15765164682e-05 3.82719483812e-07 0)
(-0.000162999086897 2.19681753347e-06 0)
(-4.12220920964e-06 3.2584825019e-08 0)
(-3.38276583961e-05 4.10004186907e-07 0)
(0 0 0)
(0 0 0)
(0 0 0)
(0 0 0)
(0 0 0)
(-0.000224798665931 2.11914281824e-06 0)
(0 0 0)
(0 0 0)
(0 0 0)
(0 0 0)
(0 0 0)
(0 0 0)
(0 0 0)
(0 0 0)
(0 0 0)
(0 0 0)
(0 0 0)
(0 0 0)
(0 0 0)
(0 0 0)
(0 0 0)
(0 0 0)
(0 0 0)
(0 0 0)
(0 0 0)
(0 0 0)
(-0.00530168493404 5.19579316747e-05 0)
(0 0 0)
(0 0 0)
(0 0 0)
(0 0 0)
(0 0 0)
(-0.00485553253188 4.68560688989e-05 0)
(0 0 0)
(0 0 0)
(0 0 0)
(0 0 0)
(0 0 0)
(0 0 0)
(0 0 0)
(0 0 0)
(0 0 0)
(0 0 0)
(0 0 0)
(0 0 0)
(0 0 0)
(0 0 0)
(0 0 0)
(0 0 0)
(0 0 0)
(0 0 0)
(0 0 0)
(0 0 0)
(0 0 0)
(0 0 0)
(-0.0367571148418 0.000871058645991 0)
(-0.00893191424221 0.000143541856752 0)
(-0.0146577396318 0.000235559713795 0)
(-0.0104568192603 0.000183224756044 0)
(-0.0196750699589 0.000466253672846 0)
(0 0 0)
(0 0 0)
(0 0 0)
(0 0 0)
(0 0 0)
(0 0 0)
(0 0 0)
(0 0 0)
(0 0 0)
(0 0 0)
(-0.00540552391375 5.2163506119e-05 0)
(0 0 0)
(-0.00814359586947 0.000142692374169 0)
(0 0 0)
(0 0 0)
(-0.132159014283 0.0031121905007 0)
(-0.102927332049 0.00242381850987 0)
(-0.19975677044 0.00412701663316 0)
(-0.0437578371139 0.000905456453117 0)
(-0.246910296468 0.00581444923271 0)
(-0.0534823464871 0.0012674079703 0)
(-0.104855849293 0.00216972345187 0)
(-0.279768382035 0.00658821878848 0)
(-0.976562927164 0.0229969168713 0)
(-0.422364192431 0.0087261325039 0)
(-0.420369323782 0.00868491810064 0)
(-0.522718581371 0.0123094123569 0)
(-0.225249819126 0.00465370834791 0)
(-0.522678727375 0.0123084738418 0)
(-0.0624265132831 0.00147007150958 0)
(-0.00922783976716 0.000161690534001 0)
(-0.0206122229664 0.000426517203064 0)
(-0.020521724733 0.000424644573731 0)
(-0.025262648782 0.000598666373487 0)
(-0.02526165305 0.000598642776942 0)
(-0.0493768191706 0.00102172690657 0)
(-0.13215567739 0.00311211192078 0)
(-0.102915305112 0.00242353528955 0)
(-0.198098156316 0.00409274931865 0)
(-0.0434034969462 0.00089812429018 0)
(-0.0534772376435 0.00126728690251 0)
(-0.104445982762 0.00216124231296 0)
(-0.246892550869 0.00581403134456 0)
(0 0 0)
(0 0 0)
(0 0 0)
(0 0 0)
(0 0 0)
(0 0 0)
(0 0 0)
(0 0 0)
(0 0 0)
(0 0 0)
(0 0 0)
(0 0 0)
(0 0 0)
(0 0 0)
(0 0 0)
(0 0 0)
(0 0 0)
(0 0 0)
(0 0 0)
(0 0 0)
(0 0 0)
(0 0 0)
(0 0 0)
(-0.00536786155288 5.18000629407e-05 0)
(0 0 0)
(-0.00814346636686 0.000142690105019 0)
(0 0 0)
(0 0 0)
(0 0 0)
(-0.0367536598196 0.000870976769953 0)
(-0.014500842023 0.000233038263915 0)
(-0.00878524780296 0.000141184828634 0)
(-0.0196735414443 0.000466217450582 0)
(0 0 0)
(-0.0104559268271 0.000183209118798 0)
(0 0 0)
(0 0 0)
(0 0 0)
(0 0 0)
(0 0 0)
(0 0 0)
(0 0 0)
(0 0 0)
(0 0 0)
(0 0 0)
(0 0 0)
(0 0 0)
(0 0 0)
(0 0 0)
(0 0 0)
(0 0 0)
(0 0 0)
(0 0 0)
(0 0 0)
(0 0 0)
(0 0 0)
(0 0 0)
(0 0 0)
(0 0 0)
(0 0 0)
(0 0 0)
(0 0 0)
(0 0 0)
(0 0 0)
(0 0 0)
(0 0 0)
(0 0 0)
(0 0 0)
(0 0 0)
(0 0 0)
(0 0 0)
(-0.015046846164 0.000279969346368 0)
(0 0 0)
(0 0 0)
(0 0 0)
(0 0 0)
(0 0 0)
(0 0 0)
(0 0 0)
(-0.00335737733352 6.24690866995e-05 0)
(0 0 0)
(0 0 0)
(0 0 0)
(0 0 0)
(0 0 0)
(0 0 0)
(0 0 0)
(0 0 0)
(0 0 0)
(0 0 0)
(0 0 0)
(0 0 0)
(0 0 0)
(0 0 0)
(0 0 0)
(0 0 0)
(0 0 0)
(0 0 0)
(0 0 0)
(0 0 0)
(0 0 0)
(0 0 0)
(0 0 0)
(0 0 0)
(0 0 0)
(0 0 0)
(0 0 0)
(-0.322147061859 0.00846894026013 0)
(-0.00772576497686 0.000143749550383 0)
(0 0 0)
(0 0 0)
(0 0 0)
(0 0 0)
(0 0 0)
(0 0 0)
(-0.0707351728333 0.00187645269311 0)
(0 0 0)
(0 0 0)
(0 0 0)
(0 0 0)
(0 0 0)
(0 0 0)
(0 0 0)
(0 0 0)
(0 0 0)
(0 0 0)
(0 0 0)
(0 0 0)
(0 0 0)
(0 0 0)
(0 0 0)
(0 0 0)
(0 0 0)
(0 0 0)
(0 0 0)
(0 0 0)
(0 0 0)
(0 0 0)
(0 0 0)
(0 0 0)
(0 0 0)
(0 0 0)
(0 0 0)
(-1.51917334983 0.0521708345059 0)
(-0.04325038932 0.00151743257604 0)
(0 0 0)
(0 0 0)
(0 0 0)
(0 0 0)
(0 0 0)
(0 0 0)
(-0.333236183238 0.0113198682646 0)
(-0.00657147878274 0.000249479534389 0)
(0 0 0)
(0 0 0)
(0 0 0)
(0 0 0)
(0 0 0)
(0 0 0)
(0 0 0)
(0 0 0)
(0 0 0)
(0 0 0)
(0 0 0)
(0 0 0)
(0 0 0)
(0 0 0)
(0 0 0)
(0 0 0)
(0 0 0)
(0 0 0)
(0 0 0)
(0 0 0)
(0 0 0)
(0 0 0)
(0 0 0)
(0 0 0)
(0 0 0)
(0 0 0)
(0 0 0)
(0 0 0)
(0 0 0)
(0 0 0)
(0 0 0)
(0 0 0)
(0 0 0)
(-2.59636079596 0.0731259423424 0)
(-0.0784069367446 0.00220831447793 0)
(0 0 0)
(0 0 0)
(0 0 0)
(0 0 0)
(0 0 0)
(0 0 0)
(-2.59626815544 0.0731233331422 0)
(-0.579307327689 0.0163160660526 0)
(-0.0162584309062 0.000469720871146 0)
(0 0 0)
(0 0 0)
(0 0 0)
(0 0 0)
(0 0 0)
(0 0 0)
(-0.0475519414226 0.00133929018346 0)
(-0.0783999405899 0.00220811743274 0)
(-0.0162582821475 0.000469716573371 0)
(0 0 0)
(0 0 0)
(0 0 0)
(0 0 0)
(0 0 0)
(0 0 0)
(0 0 0)
(0 0 0)
(0 0 0)
(0 0 0)
(0 0 0)
(0 0 0)
(0 0 0)
(0 0 0)
(0 0 0)
(0 0 0)
(0 0 0)
(0 0 0)
(0 0 0)
(0 0 0)
(0 0 0)
(0 0 0)
(0 0 0)
(0 0 0)
(0 0 0)
(0 0 0)
(-0.0457505899168 0.000777517249624 0)
(-0.00137402221642 2.3338616009e-05 0)
(0 0 0)
(0 0 0)
(0 0 0)
(0 0 0)
(0 0 0)
(0 0 0)
(-0.0236660063725 0.000402196522881 0)
(-0.0427402813068 0.000726357977683 0)
(-0.0100115849045 0.000170052953246 0)
(-0.00024594815718 2.31851585412e-06 0)
(0 0 0)
(0 0 0)
(0 0 0)
(0 0 0)
(0 0 0)
(0 0 0)
(-0.00072480421832 1.02556329284e-05 0)
(-0.00124191503999 2.10946940214e-05 0)
(-0.000228404233156 2.15313195184e-06 0)
(0 0 0)
(0 0 0)
(0 0 0)
(0 0 0)
(0 0 0)
(0 0 0)
(0 0 0)
(0 0 0)
(0 0 0)
(0 0 0)
(0 0 0)
(0 0 0)
(0 0 0)
(0 0 0)
(0 0 0)
(0 0 0)
(0 0 0)
(0 0 0)
(0 0 0)
(0 0 0)
(0 0 0)
(0 0 0)
(0 0 0)
(0 0 0)
(0 0 0)
(0 0 0)
(-0.000201567478536 2.0423790946e-06 0)
(-0.000199127340321 2.01765443507e-06 0)
(-2.57597374474e-05 2.26001838667e-07 0)
(0 0 0)
(0 0 0)
(0 0 0)
(0 0 0)
(0 0 0)
(0 0 0)
(0 0 0)
(-2.59695671681e-05 2.27842769802e-07 0)
(-2.57817286766e-05 2.26194777677e-07 0)
(-2.64280332255e-06 2.08905660643e-08 0)
(0 0 0)
(0 0 0)
(0 0 0)
(0 0 0)
(0 0 0)
(0 0 0)
(0 0 0)
(0 0 0)
(0 0 0)
(0 0 0)
(0 0 0)
(0 0 0)
(0 0 0)
(0 0 0)
(0 0 0)
(0 0 0)
(0 0 0)
(0 0 0)
(0 0 0)
(0 0 0)
(0 0 0)
(0 0 0)
(0 0 0)
(0 0 0)
(0 0 0)
(0 0 0)
(0 0 0)
(0 0 0)
(0 0 0)
(0 0 0)
(0 0 0)
(0 0 0)
(0 0 0)
(0 0 0)
(0 0 0)
(0 0 0)
(-0.00335741557547 6.2469798249e-05 0)
(-0.00912631108014 0.000169808830369 0)
(-0.00203635203991 3.78894117327e-05 0)
(-0.086749114146 0.00195987765045 0)
(-0.0177766301327 0.000330761108649 0)
(-0.0526149251661 0.00118870165913 0)
(-0.0107817839721 0.000200611409091 0)
(0 0 0)
(0 0 0)
(0 0 0)
(-0.00240580985648 4.47637335865e-05 0)
(0 0 0)
(0 0 0)
(0 0 0)
(0 0 0)
(0 0 0)
(0 0 0)
(-0.0177756741469 0.000330743321086 0)
(-0.00396628035301 7.37986489553e-05 0)
(-0.00396626495235 7.37983624027e-05 0)
(0 0 0)
(0 0 0)
(0 0 0)
(0 0 0)
(0 0 0)
(0 0 0)
(0 0 0)
(0 0 0)
(-0.0707386598246 0.00187654519553 0)
(-0.195389773622 0.00513661155464 0)
(-0.0429048831622 0.00113817469206 0)
(-0.803432451111 0.0246255101204 0)
(-0.177087970948 0.00547754320902 0)
(-0.487306126725 0.0149361180754 0)
(-0.107409142208 0.00332229351514 0)
(0 0 0)
(-0.00468590622333 8.71883774305e-05 0)
(0 0 0)
(-0.0228230862839 0.000728145736823 0)
(0 0 0)
(-0.0122043921717 0.000377360430493 0)
(0 0 0)
(-0.0149421283996 0.000385696045811 0)
(-0.0149417210283 0.000385685530477 0)
(-0.0028419585792 5.28789406863e-05 0)
(-0.177079216186 0.00547727241376 0)
(-0.0376275492105 0.00120046601953 0)
(-0.0376261409048 0.00120042108907 0)
(-0.00740188471973 0.000228866654315 0)
(0 0 0)
(0 0 0)
(0 0 0)
(-0.00335754454936 6.24721980033e-05 0)
(0 0 0)
(0 0 0)
(0 0 0)
(-0.333254305531 0.0113204838699 0)
(-0.905847636272 0.030771196005 0)
(-0.202126055704 0.00686612210348 0)
(-2.24023391087 0.0747708549282 0)
(-0.4941503234 0.016363409368 0)
(-1.34320288533 0.044479134458 0)
(-0.299718579624 0.00992495113602 0)
(0 0 0)
(-0.0262323300358 0.000920356851524 0)
(0 0 0)
(-0.0668762107937 0.00221455448348 0)
(0 0 0)
(-0.0405628408732 0.00134320739845 0)
(0 0 0)
(-0.0743567723976 0.00252586276779 0)
(-0.0743538981982 0.00252576513266 0)
(-0.0140251370923 0.000536498331341 0)
(-0.494127692452 0.0163626599615 0)
(-0.110256157119 0.00365104817066 0)
(-0.110252074253 0.0036509129697 0)
(-0.0246005657335 0.000814628886638 0)
(0 0 0)
(0 0 0)
(0 0 0)
(-0.0133551058467 0.00048173590587 0)
(0 0 0)
(0 0 0)
(0 0 0)
(-7.24699113075 0.209387693456 0)
(-4.30622945945 0.12199830659 0)
(-4.39637248862 0.0908299746043 0)
(-2.08128458362 0.0429997745559 0)
(-0.579346702334 0.016317175031 0)
(-1.57476050182 0.0443527901973 0)
(-0.351382447932 0.00989661092851 0)
(-2.6687285334 0.0551364893538 0)
(-0.282984534193 0.00584651962968 0)
(-1.26274088577 0.0260884906552 0)
(-0.133771762781 0.00276375258183 0)
(0 0 0)
(-0.0475548024917 0.00133937076485 0)
(0 0 0)
(-0.102720445602 0.00212553673745 0)
(0 0 0)
(-0.0485680163208 0.00100499080149 0)
(0 0 0)
(0 0 0)
(0 0 0)
(0 0 0)
(0 0 0)
(0 0 0)
(0 0 0)
(0 0 0)
(0 0 0)
(0 0 0)
(0 0 0)
(0 0 0)
(0 0 0)
(0 0 0)
(0 0 0)
(0 0 0)
(0 0 0)
(0 0 0)
(0 0 0)
(0 0 0)
(0 0 0)
(0 0 0)
(0 0 0)
(0 0 0)
(0 0 0)
(0 0 0)
(0 0 0)
(0 0 0)
(0 0 0)
(0 0 0)
(0 0 0)
(0 0 0)
(0 0 0)
(0 0 0)
(0 0 0)
(0 0 0)
(0 0 0)
(0 0 0)
(0 0 0)
(0 0 0)
(0 0 0)
(0 0 0)
(0 0 0)
(-0.351365269495 0.00989612710154 0)
(-0.579304930409 0.0163159985337 0)
(-1.29259667542 0.0267053175102 0)
(-2.7065131347 0.055917127115 0)
(-0.135669832098 0.00280296709069 0)
(-0.286445810498 0.00591803032168 0)
(-1.57472251632 0.0443517203439 0)
(-0.57930707002 0.0163160587954 0)
(-0.351367280388 0.00989618373791 0)
(-2.69516584387 0.0556826897144 0)
(-1.26480070028 0.0261310468535 0)
(-0.285812703485 0.00590495019845 0)
(-0.134481384751 0.00277841352008 0)
(-0.129261107807 0.00364061124762 0)
(-0.129261044909 0.0036406094761 0)
(-0.0288420121491 0.000812329057172 0)
(-0.767232071355 0.0158511749714 0)
(-0.0799309343251 0.00165396612497 0)
(-0.0802351040918 0.00166026013985 0)
(-0.00602653374684 5.81562740255e-05 0)
(0 0 0)
(0 0 0)
(0 0 0)
(-0.0294617192574 0.000609634880994 0)
(0 0 0)
(0 0 0)
(0 0 0)
(0 0 0)
(0 0 0)
(0 0 0)
(0 0 0)
(0 0 0)
(0 0 0)
(0 0 0)
(0 0 0)
(0 0 0)
(0 0 0)
(0 0 0)
(0 0 0)
(0 0 0)
(0 0 0)
(0 0 0)
(0 0 0)
(0 0 0)
(0 0 0)
(0 0 0)
(0 0 0)
(0 0 0)
(0 0 0)
(0 0 0)
(0 0 0)
(0 0 0)
(0 0 0)
(0 0 0)
(0 0 0)
(0 0 0)
(0 0 0)
(0 0 0)
(0 0 0)
(0 0 0)
(0 0 0)
(0 0 0)
(0 0 0)
(0 0 0)
(0 0 0)
(0 0 0)
(0 0 0)
(0 0 0)
(0 0 0)
(-0.0783999682393 0.00220811821148 0)
(0 0 0)
(0 0 0)
(-0.0490622949185 0.00101521863211 0)
(-0.10375535633 0.00214695156641 0)
(0 0 0)
(0 0 0)
(-0.0475520311257 0.00133929270993 0)
(0 0 0)
(0 0 0)
(-0.103654638528 0.00214486746926 0)
(-0.0488268507036 0.00101034671663 0)
(0 0 0)
(0 0 0)
(0 0 0)
(0 0 0)
(0 0 0)
(-0.0295763964054 0.000612007831089 0)
(0 0 0)
(0 0 0)
(0 0 0)
(0 0 0)
(0 0 0)
(0 0 0)
(0 0 0)
(0 0 0)
(0 0 0)
(0 0 0)
(0 0 0)
(0 0 0)
(0 0 0)
(0 0 0)
(0 0 0)
(0 0 0)
(0 0 0)
(0 0 0)
(0 0 0)
(0 0 0)
(0 0 0)
(0 0 0)
(0 0 0)
(0 0 0)
(0 0 0)
(0 0 0)
(0 0 0)
(0 0 0)
(0 0 0)
(0 0 0)
(0 0 0)
(0 0 0)
(0 0 0)
(0 0 0)
(0 0 0)
(0 0 0)
(0 0 0)
(0 0 0)
(0 0 0)
(0 0 0)
(0 0 0)
(0 0 0)
(0 0 0)
(0 0 0)
(0 0 0)
(0 0 0)
(0 0 0)
(0 0 0)
(0 0 0)
(0 0 0)
(0 0 0)
(0 0 0)
(0 0 0)
(0 0 0)
(0 0 0)
(0 0 0)
(0 0 0)
(0 0 0)
(0 0 0)
(0 0 0)
(0 0 0)
(0 0 0)
(0 0 0)
(0 0 0)
(0 0 0)
(0 0 0)
(0 0 0)
(0 0 0)
(0 0 0)
(0 0 0)
(0 0 0)
(0 0 0)
(0 0 0)
(0 0 0)
(0 0 0)
(0 0 0)
(0 0 0)
(0 0 0)
(0 0 0)
(0 0 0)
(0 0 0)
(0 0 0)
(0 0 0)
(0 0 0)
(0 0 0)
(0 0 0)
(0 0 0)
(0 0 0)
(0 0 0)
(0 0 0)
(0 0 0)
(0 0 0)
(0 0 0)
(0 0 0)
(0 0 0)
(0 0 0)
(0 0 0)
(0 0 0)
(0 0 0)
(0 0 0)
(0 0 0)
(0 0 0)
(0 0 0)
(0 0 0)
(0 0 0)
(0 0 0)
(0 0 0)
(0 0 0)
(0 0 0)
(0 0 0)
(0 0 0)
(0 0 0)
(0 0 0)
(0 0 0)
(0 0 0)
(0 0 0)
(0 0 0)
(0 0 0)
(0 0 0)
(0 0 0)
(0 0 0)
(0 0 0)
(0 0 0)
(0 0 0)
(0 0 0)
(0 0 0)
(0 0 0)
(0 0 0)
(0 0 0)
(0 0 0)
(0 0 0)
(0 0 0)
(0 0 0)
(0 0 0)
(0 0 0)
(0 0 0)
(0 0 0)
(0 0 0)
(0 0 0)
(0 0 0)
(0 0 0)
(0 0 0)
(0 0 0)
(0 0 0)
(0 0 0)
(0 0 0)
(0 0 0)
(0 0 0)
(0 0 0)
(0 0 0)
(0 0 0)
(0 0 0)
(0 0 0)
(0 0 0)
(0 0 0)
(0 0 0)
(0 0 0)
(0 0 0)
(0 0 0)
(0 0 0)
(0 0 0)
(0 0 0)
(0 0 0)
(0 0 0)
(0 0 0)
(0 0 0)
(0 0 0)
(0 0 0)
(0 0 0)
(0 0 0)
(0 0 0)
(0 0 0)
(0 0 0)
(-0.0020988544542 2.8301603082e-05 0)
(-0.00319726375959 4.31128941272e-05 0)
(-0.00127107015639 1.71308272886e-05 0)
(-0.00190196140861 2.56466363144e-05 0)
(-0.120667045531 0.00205069944522 0)
(-0.0736250024032 0.00125123434422 0)
(-0.00284298241762 3.83356548576e-05 0)
(-0.00157065451477 2.11791916142e-05 0)
(-0.00168547988335 2.27275324241e-05 0)
(-0.000968107440925 1.30476522353e-05 0)
(-0.010134228951 0.000172136138126 0)
(-0.0278842752558 0.000473884709334 0)
(-0.00621573083123 0.000105578027307 0)
(-0.000594035007939 8.00609712471e-06 0)
(-0.000141836147136 1.91159435823e-06 0)
(-0.000356656058271 4.80682620465e-06 0)
(-8.52862800364e-05 1.1494444473e-06 0)
(0 0 0)
(-0.000792169619538 1.12088211267e-05 0)
(0 0 0)
(-1.69100940636e-05 1.54617789909e-07 0)
(0 0 0)
(-1.05148259638e-05 9.61425256233e-08 0)
(0 0 0)
(0 0 0)
(0 0 0)
(0 0 0)
(0 0 0)
(0 0 0)
(0 0 0)
(0 0 0)
(0 0 0)
(0 0 0)
(0 0 0)
(0 0 0)
(0 0 0)
(0 0 0)
(0 0 0)
(0 0 0)
(0 0 0)
(0 0 0)
(0 0 0)
(0 0 0)
(0 0 0)
(0 0 0)
(0 0 0)
(0 0 0)
(0 0 0)
(0 0 0)
(0 0 0)
(0 0 0)
(0 0 0)
(0 0 0)
(0 0 0)
(0 0 0)
(0 0 0)
(0 0 0)
(0 0 0)
(0 0 0)
(0 0 0)
(0 0 0)
(0 0 0)
(0 0 0)
(0 0 0)
(0 0 0)
(0 0 0)
(-0.0404231600535 0.000686979212356 0)
(-0.00542635442882 9.21699815544e-05 0)
(-0.00908690402484 0.000154346677377 0)
(-0.000442665951312 5.9660231344e-06 0)
(-0.000675287498643 9.10117624212e-06 0)
(-9.77342966851e-05 1.31721238853e-06 0)
(-0.00015392242023 2.0744869066e-06 0)
(-0.0267911555142 0.00045530747445 0)
(-0.00929797649494 0.00015793187365 0)
(-0.00576773565247 9.79685524918e-05 0)
(-0.000631551780285 8.51172881172e-06 0)
(-0.0003669191064 4.94514626831e-06 0)
(-0.00014550114988 1.9609893729e-06 0)
(-8.3655342078e-05 1.12746350758e-06 0)
(-0.00226986542559 3.85550662332e-05 0)
(-0.00216056005214 3.66984469529e-05 0)
(-0.00046623712472 6.59703225761e-06 0)
(-0.000128792480748 1.73579855735e-06 0)
(-2.80579612952e-05 3.40073246349e-07 0)
(-2.86170137622e-05 3.4684917655e-07 0)
(-3.69540579786e-06 2.92110723094e-08 0)
(0 0 0)
(0 0 0)
(0 0 0)
(0 0 0)
(0 0 0)
(0 0 0)
(0 0 0)
(0 0 0)
(0 0 0)
(0 0 0)
(0 0 0)
(0 0 0)
(0 0 0)
(0 0 0)
(0 0 0)
(0 0 0)
(0 0 0)
(0 0 0)
(0 0 0)
(0 0 0)
(0 0 0)
(0 0 0)
(0 0 0)
(0 0 0)
(0 0 0)
(0 0 0)
(0 0 0)
(0 0 0)
(0 0 0)
(0 0 0)
(0 0 0)
(0 0 0)
(0 0 0)
(0 0 0)
(0 0 0)
(0 0 0)
(0 0 0)
(0 0 0)
(0 0 0)
(0 0 0)
(0 0 0)
(0 0 0)
(0 0 0)
(0 0 0)
(0 0 0)
(0 0 0)
(0 0 0)
(0 0 0)
(0 0 0)
(-0.00125131834992 2.12544150485e-05 0)
(0 0 0)
(0 0 0)
(-1.14783073379e-05 1.04952137215e-07 0)
(-1.94972681519e-05 1.78273668945e-07 0)
(0 0 0)
(0 0 0)
(-0.000716723467733 1.01412941736e-05 0)
(0 0 0)
(0 0 0)
(-1.80392328086e-05 1.6494209305e-07 0)
(-1.00581784514e-05 9.1967159782e-08 0)
(0 0 0)
(0 0 0)
(0 0 0)
(0 0 0)
(0 0 0)
(0 0 0)
(0 0 0)
(0 0 0)
(0 0 0)
(0 0 0)
(0 0 0)
(0 0 0)
(0 0 0)
(0 0 0)
(0 0 0)
(0 0 0)
(0 0 0)
(0 0 0)
(0 0 0)
(0 0 0)
(0 0 0)
(0 0 0)
(0 0 0)
(0 0 0)
(0 0 0)
(0 0 0)
(0 0 0)
(0 0 0)
(0 0 0)
(0 0 0)
(0 0 0)
(0 0 0)
(0 0 0)
(0 0 0)
(0 0 0)
(0 0 0)
(0 0 0)
(0 0 0)
(0 0 0)
(0 0 0)
(0 0 0)
(0 0 0)
(0 0 0)
(0 0 0)
(0 0 0)
(0 0 0)
(0 0 0)
(0 0 0)
(0 0 0)
(0 0 0)
(0 0 0)
(0 0 0)
(0 0 0)
(0 0 0)
(0 0 0)
(0 0 0)
(0 0 0)
(0 0 0)
(0 0 0)
(0 0 0)
(0 0 0)
(0 0 0)
(0 0 0)
(0 0 0)
(0 0 0)
(0 0 0)
(0 0 0)
(0 0 0)
(0 0 0)
(0 0 0)
(0 0 0)
(0 0 0)
(0 0 0)
(0 0 0)
(0 0 0)
(0 0 0)
(0 0 0)
(0 0 0)
(0 0 0)
(0 0 0)
(0 0 0)
(0 0 0)
(0 0 0)
(0 0 0)
(0 0 0)
(0 0 0)
(0 0 0)
(0 0 0)
(0 0 0)
(0 0 0)
(0 0 0)
(0 0 0)
(0 0 0)
(0 0 0)
(0 0 0)
(0 0 0)
(0 0 0)
(0 0 0)
(0 0 0)
(0 0 0)
(0 0 0)
(0 0 0)
(0 0 0)
(0 0 0)
(0 0 0)
(0 0 0)
(0 0 0)
(0 0 0)
(0 0 0)
(0 0 0)
(0 0 0)
(0 0 0)
(0 0 0)
(0 0 0)
(0 0 0)
(0 0 0)
(0 0 0)
(0 0 0)
(0 0 0)
(0 0 0)
(0 0 0)
(0 0 0)
(0 0 0)
(0 0 0)
(0 0 0)
(0 0 0)
(0 0 0)
(0 0 0)
(0 0 0)
(0 0 0)
(0 0 0)
(0 0 0)
(0 0 0)
(0 0 0)
(0 0 0)
(0 0 0)
(0 0 0)
(0 0 0)
(0 0 0)
(0 0 0)
(0 0 0)
(0 0 0)
(0 0 0)
(0 0 0)
(0 0 0)
(0 0 0)
(0 0 0)
(0 0 0)
(0 0 0)
(0 0 0)
(0 0 0)
(0 0 0)
(0 0 0)
(0 0 0)
(0 0 0)
(0 0 0)
(0 0 0)
(0 0 0)
(0 0 0)
(0 0 0)
(0 0 0)
(0 0 0)
(0 0 0)
(0 0 0)
(0 0 0)
(0 0 0)
(0 0 0)
(0 0 0)
(0 0 0)
(0 0 0)
(0 0 0)
(0 0 0)
(0 0 0)
(0 0 0)
(0 0 0)
(0 0 0)
(0 0 0)
(0 0 0)
(0 0 0)
(0 0 0)
(0 0 0)
(0 0 0)
(0 0 0)
(0 0 0)
(-7.23232958917 0.170850574813 0)
(-5.6193144382 0.132328294895 0)
(-6.39679655334 0.132159153937 0)
(-3.8815450314 0.0801935317219 0)
(-4.9590930196 0.116780851245 0)
(-5.64494680189 0.11662578091 0)
(-8.20373954646 0.194074922428 0)
(-5.61941503488 0.132330663829 0)
(-2.65431371033 0.0625059891676 0)
(-3.02460737155 0.0624890205407 0)
(-3.02899196575 0.0625796071734 0)
(-3.86195768733 0.0909445949928 0)
(-3.8621833832 0.0909499098671 0)
(-4.39984806841 0.0909017808093 0)
(-1.60993099896 0.0379119955528 0)
(-3.40825247338 0.080260366871 0)
(-1.43156784128 0.0295764908465 0)
(-2.35627594818 0.0486811536302 0)
(-3.00773481642 0.0708286436235 0)
(-1.2628396788 0.0260905317399 0)
(-1.82429524248 0.0429600232335 0)
(-0.760482283309 0.0179084699663 0)
(-0.359223534949 0.00845929488171 0)
(-0.677689643021 0.0140012096847 0)
(-0.249710375366 0.0051590685529 0)
(-0.317016546745 0.00746536958298 0)
(-0.597657586908 0.012347730676 0)
(-0.861734755188 0.0202928474745 0)
(-1.25378102119 0.0295250793543 0)
(-1.60991877416 0.0379117076729 0)
(-1.83587268967 0.0379295135275 0)
(-0.676715603196 0.0139810858183 0)
(-2.34237151519 0.0551601146409 0)
(-0.861714362579 0.0202923672523 0)
(-0.983843804526 0.0203264186579 0)
(-0.592248360921 0.0139467574945 0)
(-0.169681147844 0.00399579294181 0)
(-0.194586717388 0.00402020225638 0)
(-0.320245637954 0.00661634182221 0)
(-0.246888523239 0.00581393649858 0)
(-0.407040451174 0.00958532743618 0)
(-0.465539559503 0.00961814461273 0)
(-0.0367526771416 0.000870953482756 0)
(-0.132148556445 0.00311194423082 0)
(-0.0334045131521 0.000691220910167 0)
(-0.0906731218773 0.00187624820474 0)
(-0.116620087361 0.00274626691221 0)
(-0.0294762072573 0.000609934673075 0)
(-0.0416456818346 0.000986906382244 0)
(-0.00922682626675 0.000161672775411 0)
(0 0 0)
(-0.00873862953327 0.000140435641751 0)
(0 0 0)
(0 0 0)
(-0.00603358497663 5.82243186544e-05 0)
(-0.0104555101838 0.000183201818359 0)
(-0.0286245486843 0.000678335629073 0)
(-0.0624235028425 0.00147000061722 0)
(-0.0706409260207 0.00146173317829 0)
(-0.0143649560039 0.000230854484386 0)
(-0.0908274758425 0.00213888102188 0)
(-0.0196731777287 0.000466208831363 0)
(-0.02296117504 0.000475122754742 0)
(-0.00530076936044 5.19489588083e-05 0)
(0 0 0)
(0 0 0)
(0 0 0)
(0 0 0)
(0 0 0)
(-0.00469537249167 4.53105185748e-05 0)
(0 0 0)
(0 0 0)
(0 0 0)
(0 0 0)
(0 0 0)
(0 0 0)
(0 0 0)
(0 0 0)
(0 0 0)
(0 0 0)
(0 0 0)
(0 0 0)
(0 0 0)
(0 0 0)
(0 0 0)
(0 0 0)
(0 0 0)
(0 0 0)
(0 0 0)
(0 0 0)
(0 0 0)
(0 0 0)
(0 0 0)
(0 0 0)
(0 0 0)
(0 0 0)
(0 0 0)
(0 0 0)
(0 0 0)
(0 0 0)
(0 0 0)
(0 0 0)
(0 0 0)
(0 0 0)
(0 0 0)
(0 0 0)
(0 0 0)
(0 0 0)
(0 0 0)
(0 0 0)
(0 0 0)
(0 0 0)
(0 0 0)
(0 0 0)
(0 0 0)
(0 0 0)
(0 0 0)
(0 0 0)
(0 0 0)
(0 0 0)
(0 0 0)
(0 0 0)
(0 0 0)
(0 0 0)
(0 0 0)
(0 0 0)
(0 0 0)
(0 0 0)
(0 0 0)
(0 0 0)
(0 0 0)
(0 0 0)
(0 0 0)
(0 0 0)
(0 0 0)
(0 0 0)
(0 0 0)
(0 0 0)
(0 0 0)
(0 0 0)
(0 0 0)
(0 0 0)
(0 0 0)
(0 0 0)
(0 0 0)
(0 0 0)
(0 0 0)
(0 0 0)
(0 0 0)
(0 0 0)
(0 0 0)
(0 0 0)
(0 0 0)
(0 0 0)
(0 0 0)
(0 0 0)
(0 0 0)
(0 0 0)
(0 0 0)
(0 0 0)
(0 0 0)
(0 0 0)
(0 0 0)
(0 0 0)
(0 0 0)
(0 0 0)
(0 0 0)
(0 0 0)
(0 0 0)
(0 0 0)
(0 0 0)
(0 0 0)
(0 0 0)
(0 0 0)
(0 0 0)
(0 0 0)
(0 0 0)
(0 0 0)
(0 0 0)
(0 0 0)
(0 0 0)
(0 0 0)
(0 0 0)
(0 0 0)
(0 0 0)
(0 0 0)
(0 0 0)
(0 0 0)
(0 0 0)
(0 0 0)
(0 0 0)
(0 0 0)
(0 0 0)
(0 0 0)
(0 0 0)
(0 0 0)
(0 0 0)
(0 0 0)
(0 0 0)
(0 0 0)
(0 0 0)
(0 0 0)
(0 0 0)
(0 0 0)
(0 0 0)
(0 0 0)
(0 0 0)
(0 0 0)
(0 0 0)
(0 0 0)
(0 0 0)
(0 0 0)
(0 0 0)
(0 0 0)
(0 0 0)
(0 0 0)
(0 0 0)
(0 0 0)
(0 0 0)
(0 0 0)
(0 0 0)
(0 0 0)
(0 0 0)
(0 0 0)
(0 0 0)
(0 0 0)
(0 0 0)
(0 0 0)
(0 0 0)
(0 0 0)
(0 0 0)
(0 0 0)
(0 0 0)
(0 0 0)
(0 0 0)
(0 0 0)
(0 0 0)
(0 0 0)
(-1.25386112055 0.0295269656008 0)
(-1.61005862651 0.0379150010324 0)
(-1.87048216687 0.038644552561 0)
(-0.691556447622 0.0142877007664 0)
(-2.3426249971 0.055166083844 0)
(-1.0035311363 0.0207331630476 0)
(-0.861770579243 0.0202936910891 0)
(-1.60997977416 0.0379131441517 0)
(-3.40845610077 0.0802651620581 0)
(-2.3946435958 0.0494738372501 0)
(-1.45014973399 0.0299603966342 0)
(-3.00797098321 0.0708342050759 0)
(-1.8243402387 0.0429610828421 0)
(-1.28395316233 0.0265267407231 0)
(-0.59226203467 0.0139470794953 0)
(-0.169677408175 0.00399570487697 0)
(-0.326339395878 0.00674224013472 0)
(-0.197332897941 0.00407693892065 0)
(-0.246881940793 0.00581378148966 0)
(-0.474054727895 0.00979406977166 0)
(-0.407056870673 0.0095857140962 0)
(-0.760477417674 0.0179083553863 0)
(-0.359215824207 0.00845911330275 0)
(-0.685892327925 0.0141706788694 0)
(-0.253181694403 0.00523078672983 0)
(-0.861741629225 0.02029300935 0)
(-0.317008271709 0.00746517471556 0)
(-0.606916976271 0.0125390315958 0)
(-1.60993376757 0.0379120607502 0)
(-3.40842694719 0.0802644755254 0)
(-2.36899248524 0.0489438799441 0)
(-1.44640698782 0.0298830707159 0)
(-3.00786201525 0.0708316390075 0)
(-1.82435152073 0.0429613485207 0)
(-1.27224372225 0.0262848212433 0)
(-1.2537523638 0.0295244045063 0)
(-1.60980549697 0.0379090401273 0)
(-1.84116469286 0.0380388474197 0)
(-0.67895095616 0.0140272686778 0)
(-2.34235598272 0.0551597488695 0)
(-0.861663613907 0.0202911721804 0)
(-0.988257478786 0.0204176060907 0)
(-0.760455757728 0.0179078453199 0)
(-0.359219821717 0.00845920743944 0)
(-0.68462862953 0.0141445705964 0)
(-0.25182030031 0.00520266004329 0)
(-0.86173690411 0.0202928980791 0)
(-0.317011711175 0.00746525571095 0)
(-0.602693187049 0.0124517672275 0)
(-0.592214242036 0.0139459540346 0)
(-0.169681555197 0.00399580253451 0)
(-0.321655023798 0.00664546002836 0)
(-0.195921332304 0.00404777567952 0)
(-0.407021276032 0.00958487588398 0)
(-0.246887860037 0.00581392088096 0)
(-0.468223490719 0.00967359519267 0)
(-0.279744068785 0.00658764623982 0)
(-0.976396680195 0.0229930019493 0)
(-0.410952616419 0.0084903669581 0)
(-0.411864356896 0.00850920370694 0)
(-0.522631539388 0.0123073626198 0)
(-0.522628943901 0.0123073014991 0)
(-0.220520014009 0.0045559895855 0)
(-0.132141963445 0.00311178897337 0)
(-0.102914160732 0.00242350834074 0)
(-0.194385265302 0.00401604021418 0)
(-0.0428125836349 0.000885896851481 0)
(-0.24687491975 0.00581361615229 0)
(-0.0534741977077 0.00126721486306 0)
(-0.102607443661 0.00212319845149 0)
(-0.13214149041 0.00311177783394 0)
(-0.102917015291 0.00242357556226 0)
(-0.195096922982 0.00403074321061 0)
(-0.0429417276099 0.000888569155536 0)
(-0.246872136378 0.00581355060715 0)
(-0.0534769337745 0.00126727970152 0)
(-0.102814179794 0.00212747632667 0)
(-0.0624187960437 0.0014698897776 0)
(-0.00922727637541 0.000161680662231 0)
(-0.0202574393286 0.00041917586365 0)
(-0.0202862199676 0.000419771405318 0)
(-0.0252590982761 0.000598582234705 0)
(-0.0252606407237 0.000598618787148 0)
(-0.0485713506994 0.00100505979792 0)
(0 0 0)
(-0.0367536493652 0.000870976522207 0)
(-0.00872055780509 0.00014014521695 0)
(-0.014354810312 0.000230691436307 0)
(-0.0104561085457 0.000183212302878 0)
(-0.0196720995625 0.000466183281318 0)
(0 0 0)
(0 0 0)
(0 0 0)
(0 0 0)
(0 0 0)
(0 0 0)
(0 0 0)
(0 0 0)
(0 0 0)
(0 0 0)
(-0.00531483027577 5.1288309151e-05 0)
(0 0 0)
(-0.00814266487445 0.000142676061241 0)
(0 0 0)
(0 0 0)
(0 0 0)
(0 0 0)
(0 0 0)
(0 0 0)
(0 0 0)
(0 0 0)
(0 0 0)
(0 0 0)
(0 0 0)
(0 0 0)
(0 0 0)
(0 0 0)
(0 0 0)
(0 0 0)
(0 0 0)
(0 0 0)
(0 0 0)
(0 0 0)
(0 0 0)
(0 0 0)
(0 0 0)
(0 0 0)
(0 0 0)
(0 0 0)
(0 0 0)
(0 0 0)
(0 0 0)
(0 0 0)
(0 0 0)
(0 0 0)
(0 0 0)
(0 0 0)
(0 0 0)
(0 0 0)
(0 0 0)
(0 0 0)
(0 0 0)
(0 0 0)
(0 0 0)
(0 0 0)
(0 0 0)
(0 0 0)
(0 0 0)
(0 0 0)
(0 0 0)
(0 0 0)
(0 0 0)
(0 0 0)
(0 0 0)
(0 0 0)
(0 0 0)
(0 0 0)
(0 0 0)
(0 0 0)
(0 0 0)
(0 0 0)
(0 0 0)
(0 0 0)
(0 0 0)
(0 0 0)
(0 0 0)
(0 0 0)
(0 0 0)
(0 0 0)
(0 0 0)
(0 0 0)
(0 0 0)
(0 0 0)
(0 0 0)
(0 0 0)
(0 0 0)
(0 0 0)
(0 0 0)
(0 0 0)
(0 0 0)
(0 0 0)
(0 0 0)
(0 0 0)
(0 0 0)
(0 0 0)
(0 0 0)
(0 0 0)
(0 0 0)
(0 0 0)
(0 0 0)
(0 0 0)
(0 0 0)
(0 0 0)
(0 0 0)
(0 0 0)
(0 0 0)
(0 0 0)
(0 0 0)
(0 0 0)
(0 0 0)
(0 0 0)
(0 0 0)
(0 0 0)
(0 0 0)
(0 0 0)
(0 0 0)
(0 0 0)
(0 0 0)
(0 0 0)
(0 0 0)
(0 0 0)
(0 0 0)
(0 0 0)
(0 0 0)
(0 0 0)
(0 0 0)
(0 0 0)
(0 0 0)
(0 0 0)
(0 0 0)
(0 0 0)
(0 0 0)
(0 0 0)
(0 0 0)
(0 0 0)
(0 0 0)
(0 0 0)
(0 0 0)
(0 0 0)
(0 0 0)
(0 0 0)
(0 0 0)
(0 0 0)
(0 0 0)
(0 0 0)
(0 0 0)
(0 0 0)
(0 0 0)
(0 0 0)
(0 0 0)
(0 0 0)
(0 0 0)
(0 0 0)
(0 0 0)
(0 0 0)
(0 0 0)
(0 0 0)
(0 0 0)
(0 0 0)
(0 0 0)
(0 0 0)
(0 0 0)
(0 0 0)
(0 0 0)
(0 0 0)
(0 0 0)
(0 0 0)
(0 0 0)
(0 0 0)
(0 0 0)
(0 0 0)
(0 0 0)
(0 0 0)
(0 0 0)
(0 0 0)
(0 0 0)
(0 0 0)
(0 0 0)
(0 0 0)
(0 0 0)
(0 0 0)
(0 0 0)
(0 0 0)
(0 0 0)
(0 0 0)
(0 0 0)
(0 0 0)
(0 0 0)
(0 0 0)
(0 0 0)
(-0.0286226917484 0.000678291623985 0)
(-0.0624200739035 0.00146991986971 0)
(-0.0713813845506 0.00147705507257 0)
(-0.0144809268886 0.00023271821434 0)
(-0.0908197280967 0.00213869857151 0)
(-0.023154143737 0.000479115748077 0)
(-0.0196721662351 0.000466184861304 0)
(-0.0367522366763 0.000870943044748 0)
(-0.132144140942 0.00311184025089 0)
(-0.0916298490946 0.00189604522602 0)
(-0.0336936136816 0.000697203105752 0)
(-0.116615306801 0.0027461543356 0)
(-0.0416458190514 0.000986909633966 0)
(-0.0297346951021 0.000615283417495 0)
(-0.00530063265381 5.19476190467e-05 0)
(0 0 0)
(0 0 0)
(0 0 0)
(0 0 0)
(-0.0047257320995 4.56034899156e-05 0)
(0 0 0)
(-0.00922688433362 0.000161673792861 0)
(0 0 0)
(-0.00878614184982 0.000141199196567 0)
(0 0 0)
(-0.0104554752591 0.000183201206407 0)
(0 0 0)
(-0.00607006097056 5.85763133477e-05 0)
(-0.0367534307548 0.000870971341647 0)
(-0.132146976617 0.00311190702771 0)
(-0.0914036602539 0.00189136482683 0)
(-0.0336865976618 0.000697057927179 0)
(-0.116620362607 0.00274627339393 0)
(-0.0416461381312 0.000986917195419 0)
(-0.0297113723017 0.000614800811829 0)
(-0.0286239443614 0.000678321308017 0)
(-0.062423683752 0.00147000487743 0)
(-0.07113700263 0.00147199821415 0)
(-0.0144530964721 0.000232270960868 0)
(-0.0908250303649 0.00213882343373 0)
(-0.0196733176562 0.000466212147323 0)
(-0.0231229335379 0.000478469932881 0)
(-0.0092271209557 0.000161677938962 0)
(0 0 0)
(-0.00878473809255 0.000141176637246 0)
(0 0 0)
(-0.0104555546686 0.000183202597824 0)
(0 0 0)
(-0.0060666158923 5.85430682149e-05 0)
(-0.00530089652611 5.19502050659e-05 0)
(0 0 0)
(0 0 0)
(0 0 0)
(0 0 0)
(0 0 0)
(-0.00472192060941 4.55667088949e-05 0)