/*--------------------------------*- C++ -*----------------------------------*\
| =========                 |                                                 |
| \\      /  F ield         | OpenFOAM: The Open Source CFD Toolbox           |
|  \\    /   O peration     | Version:  v1906                                 |
|   \\  /    A nd           | Web:      www.OpenFOAM.com                      |
|    \\/     M anipulation  |                                                 |
\*---------------------------------------------------------------------------*/
FoamFile
{
    version     2.0;
    format      ascii;
    class       volScalarField;
    location    "13";
    object      alpha.water;
}
// * * * * * * * * * * * * * * * * * * * * * * * * * * * * * * * * * * * * * //

dimensions      [0 0 0 0 0 0 0];


internalField   nonuniform List<scalar> 
28582
(
0.999984156174
0.9999934637
0.999993608454
0.999994871618
1.00000033043
1.00000037338
0.99999078312
0.99999153788
0.0619022923021
0.0609393177761
1.27351699065e-30
0.999991575142
0.853388913067
0.855042632097
0.999990740397
0.99999245942
0.855663279153
0.99826505534
0.99825950874
0.999986000317
0.999997660397
0.999998271275
0.999996057151
0.999996932607
0.999998005203
1.00000026214
0.99999999017
0.999991530364
0.999988006197
0.0614604080162
-1.93583399594e-28
4.06789932635e-08
0.999991360516
0.999995925302
0.85706642689
0.855898704796
0.997954723256
0.999984455772
0.99999148049
0.999990335506
0.998164384516
0.852253079202
0.998139699784
0.997787313436
0.0619475710856
0.0612348055431
0.000197220554141
0.000320473654785
0.0613541356556
0.000222986198364
0.997775412851
0.997733446033
0.853963113558
0.853656071104
0.99768782046
0.854033284119
0.997829927591
0.99783763123
0.99810263882
0.85452427418
0.854919595655
0.997995736377
0.854412052388
0.9979410321
0.998290576734
0.998270114661
0.855635566994
0.855540762501
0.998174365327
0.85614278764
0.99832701527
0.998296322644
0.85516629992
0.856566811843
0.99829922005
0.855771518547
0.856939325996
0.998328858833
0.998281400163
0.858236046375
0.858975189723
0.998308271854
0.859384580092
0.998332523772
0.858991998777
0.06008701174
0.000297504276767
0.0571698095397
0.0585025621687
0.000286950744762
0.000275384655503
0.0612668678285
0.000226221055272
0.000312607407698
0.061488693809
0.000255766089273
0.0618239710589
0.000271151707324
0.99797576791
0.998026627637
0.856794796975
0.855203714318
0.997994209094
0.99800681125
0.855022020385
0.997978304351
0.997999844666
0.856397900027
0.854680426875
0.997993774758
0.997997923138
0.854600030428
0.852856135133
0.853224387171
0.997965674894
0.998022109862
0.853922997305
0.998029319127
0.853685511711
0.998194539762
0.854172678778
0.855468932115
0.998003062097
0.853153536928
0.998009772898
0.854195166425
0.997827589737
0.997538818769
0.852632890989
0.852372916974
0.99778352923
0.997627099507
0.85334544795
0.997946478061
0.998145282215
0.856661042043
0.857695534396
0.855873785328
0.997934622187
0.854663231306
0.854249560308
0.852483552916
0.997659419178
0.997749075253
0.851858548036
0.997605961303
0.853118759497
0.999999385175
0.999981393265
0.0623875465972
-1.30209474129e-27
0.999996633502
0.853648460206
0.999989042855
0.999988056477
0.851412998678
0.849945857553
0.843421861961
0.999982639959
0.999979276913
0.842939987764
0.843366256269
0.060974780197
0.0624630393493
0.0637162888678
0.000223165671875
0.000249767344231
0.000228293054966
0.0648911562977
0.0657428425359
0.998119356319
0.997994588884
0.854285941631
0.854451076654
0.998056529163
0.85495273332
0.9980655881
0.997310575265
0.997312864737
0.850511534471
0.85113035387
0.997161314842
0.997453324764
0.849700703507
0.997346625296
0.997548172453
0.850199765281
0.847195460475
0.997486146287
0.848622742231
0.997451702182
0.997331115709
0.997434426372
0.845778179661
0.844904570315
0.997368441074
0.847005037846
0.997394234067
0.997554456608
0.997509860954
0.844888556797
0.843004181611
0.997445631659
0.845040302667
0.997604330263
0.997668500152
0.997662173779
0.845150643069
0.843157446492
0.997722718972
0.845197538592
0.997649483643
0.999994507289
0.999995501773
0.999994249482
0.99998991197
0.0455917938107
0.0469959728097
0.0462413841642
0.0484808878894
0.0502408004072
1.04599405496e-25
6.15865034228e-07
6.80267469017e-27
6.87187680623e-09
-4.98116567505e-27
-5.06083406714e-27
0.999997724761
0.99999557126
0.898038286162
0.900265191567
1
0.900739423133
0.999998892965
0.999994668834
0.901109440733
0.901080261844
0.999993290037
0.999990259015
0.999988394987
0.901436725599
0.9029672633
0.900725661166
0.899370066471
0.999988839653
0.999993307209
0.903289066157
0.901804080673
0.898136461854
0.89006961412
0.999993186986
0.999991254721
0.897793671759
0.895057112362
0.88409652561
0.999994048666
0.999990110237
0.999989181984
0.893631272605
0.886063979938
0.882595307802
0.877154532934
0.881196726347
0.876151405011
0.047718703373
0.0466077545117
0.0467370009295
1.02201377171e-05
1.15089441081e-05
9.60969351228e-06
8.53833530418e-06
1.53819760115e-05
7.40100544458e-05
9.5589681338e-06
3.18027599516e-05
0.0452863804796
0.0447521653535
0.0462104886315
0.0452358544245
0.0460895395092
1.50530796375e-05
1.22290659158e-05
3.33910017158e-05
2.83633311301e-05
0.0482684709864
0.0472839065935
0.0489614726656
1.045279348e-05
1.77034383536e-05
2.90534443587e-05
4.70735993594e-05
0.0472997084077
0.0486132806016
5.42139567603e-05
4.97782136567e-05
6.58209905849e-05
0.0498140538293
0.0497316291018
0.0508800175168
5.27412913547e-05
6.08373479392e-05
7.05210209876e-05
8.44003637176e-05
0.999169310743
0.999261459999
0.897345300921
0.898667689939
0.999282989255
0.898022336888
0.999148153442
0.999176812362
0.999315382253
0.899462536411
0.899945665767
0.99929378154
0.999215232227
0.898902498005
0.999363397152
0.999352521237
0.90007895925
0.901486549054
0.999354008496
0.999367372013
0.900955185482
0.999283577008
0.999349710566
0.900816382716
0.901879139253
0.999270241456
0.999364818624
0.901854287388
0.999258179227
0.999304891384
0.901874301103
0.901523585811
0.999328825121
0.999239491352
0.901967478294
0.999419869405
0.999371347394
0.90184923385
0.902003903477
0.999385405696
0.999409625975
0.9021169176
0.999426854952
0.999395228645
0.902419799609
0.902394228209
0.999399046932
0.999426905429
0.902288177459
0.999396415336
0.999343435898
0.901780455911
0.900412430467
0.99938459557
0.999363502933
0.90161965158
0.999407906371
0.999386143743
0.901506562285
0.899987279052
0.999405633158
0.999387116351
0.901571497247
0.999411581219
0.99939085936
0.903575801599
0.902480976508
0.999386474474
0.99942640171
0.902403967889
0.999379499712
0.999327040192
0.903175700206
0.89856911334
0.99937236167
0.901132207474
0.999292185479
0.999390816946
0.999379919154
0.900895652387
0.896219012452
0.999407765923
0.999352413743
0.900084371647
0.999353023435
0.999186985066
0.894778710329
0.89338994586
0.999296190213
0.897865976426
0.999258010569
0.999282764478
0.99931788313
0.897100346816
0.89485476501
0.999319580443
0.999275294623
0.893692582437
0.999283332035
0.999321913549
0.896059940002
0.890758205561
0.999322423774
0.999265616039
0.892344687864
0.999242092086
0.999196859051
0.887027969958
0.885612158255
0.99923283272
0.999206270089
0.888690734877
0.999205482009
0.999318142244
0.891624776845
0.889034834806
0.999285398462
0.999239772903
0.887088164739
0.99914882107
0.999133961908
0.889052828132
0.881953109722
0.999232431835
0.884722676247
0.999051898259
0.999194782427
0.999194669772
0.885361926163
0.88102427421
0.99922611495
0.999175538378
0.88354035438
0.999150404257
0.999074006208
0.879246586353
0.879235338429
0.999137385847
0.881534581334
0.999076974665
0.99920182861
0.999204939124
0.87973059615
0.880526934213
0.999186076735
0.999230090366
0.879138868107
0.999092378868
0.878039861212
0.999154982363
0.999992067604
0.999997401791
0.999998875934
0.999997583222
0.999988921608
0.999987471413
0.999995523945
0.999996502634
0.999998579422
0.999997411359
0.999991978246
0.999987475763
0.999994703678
0.999996796526
0.999928129344
0.999963661277
0.999991430651
0.999977179545
0.999934851543
0.999958306288
0.999961994443
0.999975953536
0.9999870819
0.999992502111
0.999992519887
0.999991263707
0.999988391325
0.999981802049
0.999981706867
0.999991298644
0.999993852598
0.99999458567
0.999996757522
0.999996792008
0.999991420576
0.999985081156
0.999981876752
0.999986288161
0.999994895251
0.999998833051
0.999998875934
0.999995666401
0.999985935733
0.999990153804
0.999998872481
0.999997149614
0.999986190072
0.999989330931
1.0000190457
0.999982785555
0.999829675943
0.999949677644
0.999930377845
0.999902894333
0.999921811379
0.999980299381
0.999986242167
0.999987800804
0.99990106189
0.999930886212
0.999981182651
0.999953205882
0.999923055969
0.999958186362
0.999995777777
0.99999150162
0.999971073611
0.999968454071
0.999984782356
0.999990221856
0.999980096261
0.999980900339
0.999995131997
0.999995688297
0.999996943913
0.999997704443
0.999997668993
0.999996405904
0.999994544637
0.999995307494
0.999999180335
0.999997980362
0.999992225807
0.999992219337
1.00006288933
1.00001215277
0.999720299119
0.999891485985
0.999964859707
0.999938693706
0.99994997184
0.999984130243
1.00006985124
1.00001858686
0.999889297089
0.999909690684
0.99997649039
0.99998366138
0.999964341345
0.999978039702
0.999999318719
0.999999172411
0.999998662687
0.99999848748
0.999998700152
0.999998604062
0.999997670431
0.999998420067
1.00000014445
1.00000002789
1.00000010793
1.00000006128
0.999999853222
0.999999688089
0.999999491839
0.999999459135
0.999999792511
1.00000069238
1.00000077712
1.0000005825
1.00000046569
1.00000033476
1.00000017621
1.00000004651
0.999999167825
0.999998827111
0.999998180116
1.00011506549
1.00001115477
0.999860198046
0.999796299188
0.999969417114
0.999982903849
0.999975846347
0.999974774601
0.999990439498
0.999991521823
0.999983758867
0.999970619742
0.999970375217
0.999976957119
0.999974740934
0.999969001341
0.999951932908
0.999993569012
0.999985397272
0.999981536894
0.999982896519
0.999981180931
0.999979615955
0.999973138944
0.999962350221
0.999963828363
0.999968731154
0.99998577328
0.999990503311
0.999993320051
0.999990162818
0.999977031656
0.999964447632
0.99996143901
0.999968067207
0.999980739006
0.999991364522
0.999989882451
0.999979407108
0.999954750029
0.999956051127
0.99996754672
0.99998044238
0.999977847157
0.999979784984
0.999986338862
0.0609570180484
0.0615898329416
0.0598981305336
0.0588356796018
0.0583182417736
0.0608169038233
0.0657134736031
0.0704045592173
0.0501211263709
0.0549754851879
0.0573522109861
0.057608496847
0.0594056690015
0.0583522668418
0.0601610946001
0.0623701474047
0.0654537507979
0.0665926871635
0.0512187234286
0.0537235287849
0.0546031261882
0.0563300037409
0.0591648971118
0.0612976091122
0.0622748558477
0.0640113946497
0.065129571091
0.0650284646703
0.0540963584023
0.0554158637882
0.0576064364586
0.0593549075575
0.0612504645297
0.0625641719661
0.0632949532657
0.064562533119
0.06393841073
0.0596444649365
0.0601918635037
0.0605464002532
0.0625586670009
0.0636044064972
0.0643083221141
0.0631494327924
0.064058141037
0.0650727852196
0.0639653655866
1.00862827194e-05
3.00452599705e-05
3.65297251553e-05
4.80952630506e-05
4.80083595611e-05
-4.98608925221e-25
-6.56878729668e-27
-2.68092832775e-28
-1.63157843479e-27
3.8803296952e-05
2.93555361941e-05
2.59215783939e-05
1.56033211212e-05
2.7648651547e-05
1.00607914982e-24
5.54493272932e-05
-6.72036898246e-25
-6.27502082143e-26
-5.20663949722e-26
2.86485671994e-05
3.27927972471e-05
5.91904231189e-07
-2.41810004019e-25
3.7420197568e-06
6.09407743376e-06
1.80939387915e-06
5.78311311804e-05
-8.41507508844e-25
-1.92600126689e-24
3.54813710772e-05
-1.7787078032e-30
-1.17429463836e-30
-4.41119556623e-29
-8.17365710475e-28
-1.52859109897e-25
-7.775963415e-24
-3.67036876697e-25
-1.05196093425e-24
3.92651887867e-05
-7.52467244312e-31
-3.62413211114e-27
4.01027354945e-05
-1.50337592941e-26
-5.5446923363e-26
-2.08547491279e-25
4.09343096676e-05
-1.2515025584e-27
-4.46710577191e-26
4.69712928046e-05
0.999994104195
0.999974186908
0.999966885776
1.00000951064
1.00000731314
0.999993705109
0.99999447741
0.999996831093
0.999978351431
0.99998102456
0.999996631082
0.999919400603
0.99999139459
0.999959050871
0.999961619237
0.999965769004
0.99996155875
0.999961847256
0.999964810376
0.99996155875
0.999961277036
0.999981470299
0.999961847256
0.999975026589
0.999956320183
0.999956706526
0.999967017535
0.99998408392
1.00000568297
1.00001119631
1.00000708712
1.00002937487
1.00002370638
1.00001693595
1.0000092058
0.999853889667
0.999994119229
0.999904425668
1.0000022101
0.999921836411
0.999974730377
0.99987099405
0.999987345833
0.999961847256
0.99996155875
1.00000648542
1.00000614763
0.999997604861
0.999998069383
0.999961693392
0.99997027357
0.999976303502
1
0.999941301014
0.999998655369
1
1.00004422989
1.00006075132
1.00003760879
1.00013487659
1.00007767016
1.00016155984
1.00011220247
0.999939028873
1.00000596407
0.999923979667
1
0.999826833052
1.00004489736
0.99995076684
1.00004891808
1.00001411895
1.00001136208
1.00005758057
1.00004191286
1.00000009297
1.00000026999
0.999938134455
1.00000506841
1.00000084974
1.00001872354
0.999989659709
1.00000055707
1.00000055319
1.00008490181
1.00005336293
0.840153694298
0.845659736894
1.00006984873
1.00005864911
1.00003251901
0.842603107051
0.83769327062
0.846953993966
0.847109123269
0.999977202615
1.00000132117
0.999979805376
0.834950344368
0.834542353078
0.846156435788
0.843738529077
0.999769142671
0.999915850453
0.999869900636
0.837279278177
0.846542234272
0.844904128808
0.850730611889
0.999891655615
0.999880559698
0.99992616453
0.848759022416
0.854105333152
0.850492131377
0.852166294342
0.999985333232
0.999975748304
0.999988586237
0.855224264087
0.856851518824
0.852498261301
0.85014877582
0.999973121641
0.999988917342
0.999984666037
0.85631923182
0.848323348125
0.847427446155
0.837871760343
0.999979625623
0.999978307636
0.999979679681
0.842930224861
0.829151828707
0.834724531778
0.827245268938
0.999778627368
0.999975549859
0.999934158328
0.837238990852
0.802618937269
0.832741817533
0.821137274228
0.999989231062
0.999985971546
0.895349517782
0.86202372708
0.885983131483
0.869080195767
0.999992347858
0.999979654949
0.99998070737
0.853475382029
0.849087851064
0.863703189188
0.858300428078
0.999987389037
0.999979265386
0.999978985135
0.850622941856
0.852821473987
0.858778859363
0.859147971454
0.999978554906
0.999976528102
0.999976675788
0.851046010845
0.843918528128
0.857243618039
0.84970056876
0.999969039118
0.999978046162
0.999981679832
0.844817705968
0.851555808188
0.848458874833
0.850139509173
0.999972108122
0.999985217788
0.99998546994
0.853420585431
0.850429680223
0.851554761071
0.84671919916
0.999975602459
0.999983221577
0.999980666755
0.849448406697
0.847421048152
0.844082916404
0.837108929227
0.999972851903
0.999977819818
0.99997309802
0.845231405772
0.836135383498
0.835648430023
0.833720677392
0.999965724791
0.999972228368
0.999970556973
0.833994356217
0.826827438521
0.83339451023
0.830806766366
0.999938829383
0.999962502973
0.999971867781
0.832529518513
0.826558394574
0.837681109783
0.831902605612
0.999988189831
0.999988436656
0.999987574276
0.882843901897
0.870385424275
0.875519523449
0.870864142449
0.999981428696
0.999985192273
0.999985087639
0.865947305223
0.860533041043
0.868042446163
0.862799324854
0.999981714024
0.999985492504
0.999985984271
0.860600625339
0.858958707636
0.861556777521
0.857440500183
0.999981472967
0.999985487879
0.999983838765
0.857347403801
0.851193875204
0.85641418847
0.854711526027
0.999979812463
0.999981223504
0.999979915981
0.849822660785
0.84944940853
0.854594196146
0.851680082093
0.99997647672
0.999977295183
0.999975626581
0.849066255475
0.846355847331
0.849997979551
0.847688229852
0.99996483256
0.999970716754
0.999965721398
0.844432018685
0.835033798211
0.847988422096
0.84361183398
0.999962646153
0.999961235941
0.999962433501
0.834155142935
0.835005991163
0.841705760473
0.839648210565
0.999966051599
0.999965066898
0.999967952472
0.834036223573
0.830756135997
0.838971332379
0.836306369584
0.999984249239
0.999972202672
0.999988827343
0.837954601146
0.833069131904
0.842507220631
0.837018992591
0.874728676284
0.870434997348
0.999987870843
0.999989476202
0.867700679343
0.862453523854
0.859505423494
0.999993589412
0.999992890577
0.999994926602
0.861153006418
0.857124395144
0.85828818605
0.856245571601
0.999993254772
0.999995075221
0.999993777884
0.85642623381
0.854996598433
0.855717520507
0.855152921629
0.999984852704
0.999990217269
0.999983210111
0.854670168458
0.851542230703
0.854809832181
0.853135177074
0.999970446711
0.999972546964
0.999964122698
0.850558190652
0.849623873455
0.852811381585
0.852020989241
0.999961621585
0.999961123612
0.999960603768
0.84913158232
0.844871514912
0.851622009029
0.848656767546
0.999963174911
0.999961662292
0.99996631423
0.843566092598
0.840276036003
0.847607001437
0.844708396955
0.999975745131
0.999972923687
0.999978749488
0.839891609065
0.83885646259
0.844384682705
0.844594384899
0.999993927133
0.999984109874
0.999994406685
0.845263049325
0.839075326783
0.850641386527
0.842248832574
0.999991173094
0.99999583654
0.855478681357
0.854795797115
0.854971502385
0.999987367932
0.999994137317
0.999991105248
0.85431015786
0.852496223387
0.855255256004
0.854344028376
0.999968189667
0.99998638951
0.999978538863
0.852603983475
0.852134387221
0.854447406397
0.852286046974
0.999954089601
0.99997015833
0.999965299886
0.851412434884
0.848814671464
0.851169586688
0.849148158862
0.999961799266
0.999966178561
0.999968522483
0.848027950533
0.846010838802
0.848649980718
0.847460009988
0.999975706403
0.999973087327
0.999980066336
0.846057055653
0.846514422914
0.847492986139
0.848085033854
0.999992421443
0.999985786567
0.999995934461
0.852202338473
0.842514169339
0.853623490349
0.84289986465
0.999978097789
0.848557406484
0.999978217308
0.847851485988
0.847037795868
0.999983500795
0.847148824921
0.847334539183
0.999993725639
0.852921979114
0.842348817208
0.000545033982019
0.000760868045934
0.000323618750242
0.00059535484348
0.0596031804426
0.0584181045996
0.000793546566115
0.000740445067095
0.000670776618104
0.000673741383747
0.0617985473371
0.0596686158272
0.0599753401711
0.000814226991418
0.000916255655319
0.000707960133669
0.000795281991044
0.0603838470862
0.0590337737186
0.0586118302909
0.00114617310735
0.00145159635207
0.00109726820428
0.00137326324158
0.0595741092292
0.0588996120861
0.0588900859902
0.00134725290964
0.000591798462652
0.00132412843623
0.000809125295141
0.0581080495542
0.0591053415035
0.0586137360486
0.000134968891637
8.04700618965e-05
0.000248289530157
0.000146297945242
0.0592007428829
0.0586674793189
0.0595828670055
7.26145759613e-05
5.94072541799e-05
0.000118233033874
8.38192004651e-05
0.0630735391029
0.0613041651758
0.0634789551679
9.7106093361e-05
0.000185976281958
0.000124944752253
0.000193668460711
0.0683388357955
0.0655451133699
0.0675103507784
0.000201346351949
0.000227631471881
0.000191306411938
0.000209690977182
0.0762257765242
0.0680099887922
0.0737092523218
0.000348100770825
0.000832486144342
0.000311189005228
0.000839969686175
0.0526059397646
0.0504826162334
0.0522486250665
0.000325314382249
0.000615397651142
0.000299660982973
0.000521954953211
0.0565991376917
0.0541124332991
0.0549831019904
0.000608621827325
0.000526686816436
0.000376621267732
0.000317769923233
0.0573714969645
0.0553834547158
0.0557164201904
0.000456197810404
0.000491035395081
0.000246610537486
0.000290867045015
0.0585405133723
0.0564368789125
0.0578693918394
0.000694266969238
0.000813896152544
0.00044833800564
0.000551240167027
0.0590066631254
0.0593620434781
0.0598415624481
0.000723072497127
0.000823704519941
0.000525185535828
0.000684988871566
0.0591620752935
0.0593371917845
0.0602273763445
0.00105720914609
0.000489868345302
0.00114988100516
0.000836056356586
0.061037523656
0.0618959978983
0.0627345834187
0.00018343078028
0.000128450597561
0.00035967257193
0.000288178384731
0.0641485642658
0.0633689631255
0.0643604889958
0.000176787430198
0.000238143712977
0.00034951970566
0.000331162933333
0.0670540205333
0.0652799139248
0.0665771454847
0.000244529770095
0.000236354243253
0.000290824297233
0.000233174467586
0.0721535486037
0.0655892103564
0.0699850419489
0.00028450017888
0.000526628107868
0.000236078282662
0.00042000042708
0.0523658710335
0.0518128886427
0.0525504889127
0.000243541037344
0.000477495037625
0.000255113864461
0.00054115470519
0.0541571764722
0.053760484745
0.0542909367371
0.000264886665469
0.000231240148438
0.000268610877956
0.000263871104506
0.0552862574335
0.0549296276208
0.0558037392246
0.000203300147717
0.000256602770368
0.000269274357044
0.000327176807899
0.0577327015363
0.0568131942181
0.0579145552665
0.000347990768701
0.000419972296015
0.000354228467645
0.000364668992108
0.0603652921827
0.0590180339557
0.0602245328546
0.000481633952578
0.000530995482164
0.000404323884708
0.000473771858452
0.0619164417165
0.0614544585695
0.062375909101
0.000558162851904
0.000645655249798
0.00051338628065
0.00071366238711
0.0632391866068
0.0618678820483
0.0621470174841
0.000885845659177
0.000785508280152
0.00128804364734
0.00133155536263
0.0644006768101
0.0638311420163
0.0643001533011
0.000434681553719
0.000312645147407
0.000424623708362
0.000225049816379
0.0662638552534
0.0648615280301
0.0658506089513
0.000281519820257
0.000266476041844
0.000236916653631
0.000270477134251
0.0688130165314
0.0646118907379
0.0681009104524
0.000265900641291
0.000480100929705
0.000283982056596
0.000559991593942
0.0546305216258
0.0551782990422
0.00024931151973
0.000260409560136
0.000296219477513
0.056491700176
0.0560049051733
0.0572722861113
0.000272062796461
0.000305868985315
0.000294503968555
0.000303910168782
0.0585303530351
0.0584480068984
0.059161096384
0.000309019160618
0.000307299991764
0.000286042925796
0.000275030569583
0.0602903628388
0.0595772500017
0.060141747703
0.000338034829747
0.000389167048348
0.000305022905877
0.000407631474133
0.0619913308969
0.0609137364279
0.0617206382861
0.000399736063393
0.000485933482995
0.00043158909265
0.000367708664187
0.0628628195081
0.0622319767379
0.0627359709961
0.000536457684437
0.000543479099966
0.000389120144547
0.000400977091256
0.0639354137665
0.0632027774647
0.0639385636843
0.000425568940004
0.000281064104923
0.000358275652657
0.000262573712301
0.0653746554658
0.0644297014529
0.0649695542462
0.00023771699818
0.000229916473011
0.00019600239142
0.000147455282011
0.0675357877827
0.0634538033049
0.0671465925902
0.000244110387486
0.000600381514629
0.000176979148195
0.000631754954151
0.060172063904
0.0611668523
0.000239564833572
0.000215916731449
0.000238129635083
0.000197005502183
0.0603324031056
0.0609113372011
0.0607370591614
0.000213104600864
0.000426775647406
0.000185520250023
0.000371211037
0.06170104818
0.0605961165957
0.0618700879263
0.00103506713861
0.00057156566845
0.00105159963511
0.000497588285779
0.0630422192842
0.0627077253791
0.0631584992979
0.000311466155566
0.000300613104009
0.000231467739114
0.000219716274001
0.0642156809042
0.0637510544666
0.0643536248871
0.000251216520403
0.00022641559684
0.000200305632054
0.000197238775593
0.064697926952
0.0644874370607
0.0648338803494
0.00018758984855
0.000154112654934
0.000183830852777
0.000171975356974
0.0669687901543
0.0632373492314
0.0671594307692
0.000185925144035
0.000651136749093
0.000212384734836
0.000673413899164
0.0632067492148
0.000209785459715
0.064717377785
0.000214152012879
0.000212009199893
0.000206563747157
0.000200458957523
0.0656293234209
0.000186221564981
0.000196681852289
0.0001764042254
0.000203494673574
0.0676812379538
0.000238256321958
0.000714456135182
0.000245969048982
0.000812618457258
0.997926570781
0.997965730207
0.836539194823
0.842560600011
0.998060859212
0.83927188442
0.997802000852
0.997972355897
0.99801662002
0.843315076864
0.844488142996
0.998070277801
0.997965328759
0.840604918884
0.99791110766
0.99797295114
0.841980256606
0.844078773094
0.998059048178
0.843302262447
0.997797105029
0.99752643179
0.996646074203
0.840562454747
0.839363650734
0.996864316368
0.841718593922
0.997335392515
0.997948974473
0.998016991084
0.845525681572
0.847735705415
0.998067253275
0.997905640038
0.845781127307
0.997662352706
0.997391265314
0.842644796488
0.847897693026
0.997244887191
0.997658606576
0.844698903916
0.996379803325
0.996102686399
0.831991995478
0.83704613313
0.99637529546
0.835397631362
0.996012773147
0.996464116893
0.996464518527
0.832573405758
0.837968666704
0.996790151667
0.835904802884
0.996098709494
0.997148843988
0.997299754343
0.840992954317
0.844695820306
0.997133510675
0.99728272335
0.840106077266
0.997201968539
0.997502315016
0.841101728067
0.843482382986
0.997407051357
0.997317910088
0.839709906609
0.997716089358
0.99698959188
0.8409131378
0.840711853234
0.997217940226
0.844095435843
0.997589983648
0.998142763583
0.998393750251
0.843894120596
0.84925459478
0.998459928982
0.846786047122
0.998071206089
0.997988328263
0.997734494799
0.842818461809
0.847544252124
0.997670725341
0.998012897102
0.845786225007
0.998318619032
0.998569780402
0.850039558947
0.848991953775
0.998601835758
0.998300648978
0.847737283471
0.998890064816
0.998636423727
0.850917253319
0.851023499948
0.998709008257
0.852620666747
0.998834416652
0.998971273653
0.998932068925
0.852741328089
0.85525537359
0.998982378789
0.854100186468
0.99892366258
0.999013252985
0.998832008194
0.849816839189
0.850882656683
0.998826740839
0.999044941459
0.850232487148
0.999088702171
0.999120639723
0.853079810778
0.851981501221
0.999080393247
0.999116645328
0.851713508717
0.998925136066
0.998912211664
0.856351065198
0.856465435604
0.998973681971
0.85678033558
0.998843813982
0.998831366932
0.99854995392
0.85700811359
0.856264670278
0.998706308682
0.856726260284
0.998716429431
0.99901253388
0.999115570755
0.854575802773
0.852084020636
0.999056834838
0.999058469045
0.854890364236
0.998945240146
0.998752680679
0.85417505606
0.851748476958
0.998815418315
0.998955446285
0.85511324141
0.998361377039
0.998379114364
0.855662847173
0.854758327511
0.998565539239
0.852339897282
0.998208104207
0.998083218689
0.997802940614
0.852726726234
0.843766464538
0.997805951454
0.848262241371
0.998001610165
0.998423662711
0.99847979504
0.852049433871
0.844467681359
0.998646013663
0.998158014069
0.849258785546
0.998103691082
0.997511923216
0.841496525578
0.840988711926
0.997766054413
0.997802097947
0.845537559097
0.99739703888
0.997559646662
0.838058096781
0.838924024603
0.997512296273
0.83512142148
0.99745135531
0.99739333419
0.997474285261
0.833992872747
0.827406813743
0.997433980676
0.83187892877
0.997437906341
0.997292876635
0.997168425392
0.83736545965
0.832728588938
0.997386586524
0.997027311958
0.834057283733
0.997296182722
0.997087439328
0.82783059454
0.830423857565
0.997358930099
0.997022868559
0.831771557689
0.996396090402
0.997232016306
0.828609977206
0.8311369562
0.99724312712
0.829781153109
0.995929615351
0.993499225642
0.987886703221
0.780544972305
0.807265763978
0.805507567779
0.991453775597
0.986764974348
0.996465986125
0.997023021376
0.832549479588
0.829599475098
0.997244338257
0.996403915246
0.828083756903
0.993440546152
0.995111463219
0.809802785876
0.788829826252
0.994198103253
0.784763295183
0.994109714874
0.998929791086
0.999214531641
0.88573181202
0.89276273285
0.999017982041
0.884990969473
0.999143459733
0.998670077988
0.998434861637
0.874092531931
0.865545540607
0.998742182991
0.998365385515
0.875290215153
0.99883634168
0.999036048102
0.890021217929
0.880731437928
0.998797024455
0.883482454902
0.999092836206
0.998534287438
0.998179852189
0.867598287237
0.874805468196
0.998193301783
0.998493570794
0.875828095446
0.997889320009
0.998112775187
0.847769349795
0.857811056035
0.997916376504
0.998073055483
0.852690918345
0.997786222737
0.997767228107
0.848066637407
0.851450970374
0.997783335018
0.997751742159
0.850945496231
0.997705118197
0.997884348293
0.860913792831
0.859236042602
0.997879053264
0.997676257484
0.856130710125
0.997617999669
0.997471300204
0.855037928129
0.858159409294
0.997572401238
0.997530931098
0.854564762686
0.997684874824
0.997724424558
0.852202866917
0.852771576444
0.997644277229
0.997728814542
0.854574509041
0.997624739139
0.997496165979
0.853188753431
0.855600149068
0.99757597624
0.99753255795
0.855856228121
0.997545236071
0.997449643295
0.856076028315
0.85971930301
0.997547169157
0.997440108793
0.857543712997
0.997555139322
0.997516686331
0.858001373165
0.859500292851
0.997588729314
0.997461912026
0.858029026365
0.997416112766
0.997432996833
0.848377978414
0.85396812385
0.997395831486
0.997469288568
0.851323314403
0.997350944007
0.997439739436
0.845814724905
0.846082111498
0.997368198414
0.997393088592
0.848656326099
0.997660515552
0.997620662643
0.856310965376
0.854697866533
0.997646088405
0.997708808029
0.853582712507
0.997649462468
0.997722826208
0.847785711053
0.852166538612
0.997602916592
0.997721593621
0.850644151992
0.997622580519
0.997528776929
0.846917226925
0.846369381941
0.99767831071
0.997475527958
0.847552967876
0.99780168023
0.998120389377
0.849132736089
0.851395350591
0.997867478961
0.998008573863
0.84921996034
0.997576270983
0.997652702132
0.847147244365
0.848574182679
0.997537308372
0.997645820688
0.847679601451
0.997663752301
0.997717748103
0.850679654299
0.849248626603
0.997802150947
0.997658574093
0.848947663091
0.998389216663
0.998390353041
0.854446154468
0.853515579209
0.998567072319
0.998228336537
0.854149707658
0.99839423258
0.998600392475
0.852730450839
0.849278812733
0.998590678096
0.99838751544
0.852221710145
0.998106497066
0.997827435983
0.852552070321
0.851250748512
0.997953125161
0.997949068344
0.853619384451
0.998165373269
0.997942667146
0.848254003491
0.849310053905
0.998152635369
0.997966270413
0.85163370605
0.99829493001
0.998591884289
0.848467474048
0.847190062767
0.998542458953
0.99836395314
0.845402468442
0.998156333839
0.99822115411
0.848467066314
0.84366389352
0.998429108523
0.997937158085
0.844843477789
0.998002270648
0.997867974715
0.845224426413
0.841668097677
0.99811405027
0.997710724924
0.842444157581
0.997822694354
0.997266464389
0.839849202723
0.839582249632
0.997582357447