/*--------------------------------*- C++ -*----------------------------------*\
| =========                 |                                                 |
| \\      /  F ield         | OpenFOAM: The Open Source CFD Toolbox           |
|  \\    /   O peration     | Version:  v1906                                 |
|   \\  /    A nd           | Web:      www.OpenFOAM.com                      |
|    \\/     M anipulation  |                                                 |
\*---------------------------------------------------------------------------*/
FoamFile
{
    version     2.0;
    format      ascii;
    class       surfaceScalarField;
    location    "13";
    object      alphaPhi0.water;
}
// * * * * * * * * * * * * * * * * * * * * * * * * * * * * * * * * * * * * * //

dimensions      [0 3 -1 0 0 0 0];
oriented        oriented;


internalField   nonuniform List<scalar> 
92311
(
0.203973582882
2.85476719993e-05
-0.00125256983923
-0.203752494939
0.00100487574123
-7.58045845373e-05
0.204141974813
-0.000909571514949
0.000818520507484
0.203992327966
0.000108292000485
-0.0013052750328
-0.203791487592
0.00102540339552
-6.08324893638e-05
0.204117541797
-0.000908965877552
0.000769586979395
0.203694110896
0.000159344740086
0.000129351938328
-0.00136476357378
-0.203807986169
0.00102400867891
0.000143307672432
0.000131194963231
-9.15494847326e-06
-0.000102975286874
-0.000101359980369
0.203987249116
-0.000893053118131
0.000744542537003
8.2419610252e-06
0.0511714255686
5.909335911e-05
5.18459767615e-05
5.3812113994e-05
5.79581157516e-05
-0.000371845243852
-0.0511556328684
0.000292724201639
-0.0512104265333
0.051206501848
1.05113064684e-05
2.72245037535e-05
2.14974418312e-05
1.44662957941e-05
-0.000246488471209
0.000167578907145
-2.55629222059e-05
-0.000643594155287
-2.42071860479e-05
-2.26616979193e-05
-2.00520968672e-05
3.27052321933e-05
0.000496647315436
-9.57204654417e-07
0.000206593730515
-0.00122421172294
-1.85135958977e-05
-8.89642008246e-07
0.00109375429963
4.04263863868e-06
3.58962790542e-06
1.86003383395e-06
9.81376044899e-07
0.000199917077933
-4.35898565708e-10
1.14399033128e-10
0
0
6.31973698112e-29
4.83941684821e-32
0
3.2149953258e-10
4.18407806976e-05
4.45435866129e-05
3.86431760848e-05
4.97571838341e-05
-0.000309909546711
0.000225549277352
-6.85661874357e-05
0.0100506552988
7.04928189127e-05
-5.13853394723e-05
-0.0100379556262
0.0100992261121
1.22574524484e-05
-5.22582529109e-05
-0.0100854238123
8.06544680412e-05
-5.9178174224e-05
8.06200275755e-05
-2.57987422971e-05
0.051236990841
-2.19048063957e-05
-8.1091771509e-06
-2.74152317256e-06
-0.000155518831651
-4.39516537517e-05
0.0511700475896
-5.30647983946e-05
-1.74214025337e-05
-2.57523726514e-05
-0.051122831758
7.2392490689e-05
8.90537671795e-07
-4.36258194858e-05
0.0101127807356
7.42517452636e-05
-4.83019153234e-05
8.76233366821e-06
0.0127434606352
-1.93057179453e-05
-1.74409485384e-05
-0.0127415705644
0.0127330002398
7.39249161731e-06
-5.02857038683e-05
-0.0127249987641
-0.00011580810147
0.204205210703
-0.00209248206539
0.00176484249369
-0.203760390088
0.204244363691
-6.42512016201e-05
-0.00048866745496
0.000451115786066
-6.74527211801e-05
0.204343011131
-0.000330266741579
0.000299179114549
-5.23564212909e-05
0.204271567982
-0.00215850340149
0.00178455367651
-0.203960766254
0.204341994829
-0.000169343123526
-0.000601388453505
0.000482674380448
-0.000133155597468
0.204545473485
-0.000419772381125
0.0002820697247
1.67777340739e-05
0.000117898326184
0.000146176200658
-0.00229604396694
0.204305230694
0.0018549489285
-0.204228637129
3.15572413134e-05
-0.000170245797474
-0.000161456002819
-0.000196120533257
-0.000223172048156
0.204572745553
-0.000447627639804
0.000443742638965
0.051299321673
2.01428548306e-05
-8.32197465094e-06
1.28041554076e-05
-3.82288297305e-06
-0.000680345783493
-0.0512356370531
0.00061267612768
0.0512997495093
3.27446702602e-05
-4.01232999612e-05
-3.29710881864e-05
-5.70986790108e-05
-4.68380026365e-05
-8.87570938738e-05
-0.000242857253731
1.36601099677e-07
-0.00125318155532
3.5632557579e-06
6.45417619772e-06
3.88046682547e-06
7.62899451179e-06
0.000257042129597
0
0
0
3.12659635263e-32
6.03010064143e-34
0
0
0
-8.82481103846e-09
4.55894282965e-11
-6.32173703539e-08
1.80358606954e-09
5.24224019587e-30
1.02623613134e-09
-6.41479954942e-09
0.000532875469065
3.6419929374e-05
3.96847837777e-05
2.82675314476e-05
4.97087849177e-05
0.0513379767683
-0.000607778592332
5.63660295439e-05
6.80466767306e-05
5.26867742442e-05
6.23989851015e-05
0.0512475544397
0.000415809512108
-0.0512238029168
5.18918445628e-07
1.11817854272e-05
0.0100749678329
-2.25475010686e-05
3.43644271016e-05
-0.010103286626
1.74017432412e-05
-4.27195253228e-05
-0.0100463812932
-1.77154477733e-05
3.31970315703e-05
0.0100403163326
8.55696883976e-05
0.0127660770949
-0.000127728545224
9.75223965116e-05
-0.0127656089045
2.12749290153e-05
-5.2997332333e-05
-5.0989562777e-05
-4.34300493991e-05
-5.99071513529e-05
0.051391731586
-6.74002676795e-05
0.0512729902617
-6.22709912288e-05
-9.44316756144e-05
-7.01049533821e-05
-8.69182342232e-05
4.75419330112e-05
-9.16346695946e-05
-0.000100098426609
-8.43847728247e-05
-8.83682686664e-05
0.0513923715175
4.32516293153e-05
1.52512481033e-06
-8.96880791557e-06
-3.93878261547e-05
0.0127495296826
-4.50694295235e-06
4.62524832364e-05
-0.00996142342103
-5.69068641761e-05
0.00992462625931
6.71704431156e-05
1.43052104097e-06
-7.19692099294e-05
0.0127428235156
-0.0127573310794
-0.000122662043158
0.0127825567634
2.15597112573e-06
5.58964639475e-06
-0.000839720599098
-1.60249187288e-05
-1.12474178864e-05
-1.41134955758e-05
3.31681518976e-05
0.000259860654751
-8.11257969282e-07
9.50171136233e-07
8.4831176967e-06
7.96383009257e-06
4.45895608125e-06
3.65583520711e-06
-0.000400960056674
0.000206799907035
0.000150468048661
-3.43317270412e-06
-6.48240213642e-07
9.70308613654e-07
1.99608453187e-06
1.77287541989e-06
-8.38916312783e-07
-3.83198527452e-06
-4.12977132469e-07
2.17256915024e-06
-2.28119660246e-06
5.64113311201e-07
8.2384619526e-05
0.000222311937577
-1.56703202955e-06
1.75351457652e-06
2.0381507841e-06
7.28967427141e-05
0.0127537018435
-8.4812473601e-05
-0.0127513723649
-0.0127437275034
5.73595710734e-05
-6.65302345159e-05
0.0127472526648
5.81285722809e-05
7.56861335759e-05
-6.57814228755e-05
0.0100655852285
-5.66734581746e-05
-6.1078562572e-05
0.0100657427863
-0.0100560144294
8.8147635382e-05
-0.0127405341229
6.22657504736e-05
0.0100748199095
9.60050005335e-05
0.0127579678338
-7.78900171906e-05
0.0127454515888
5.40897336803e-05
-6.38064776542e-05
5.48741271546e-05
5.90814781309e-05
-0.0127573153095
0.012761750408
-6.92328768888e-05
7.8793968501e-05
-6.29970896813e-05
-5.84080181067e-05
-4.59275342388e-05
-0.0100852909537
0.0100961009486
0.00010243027312
0.0127488260447
5.04388888178e-05
0.000102244130823
-7.48776321582e-05
-0.0127444246012
2.10899429849e-05
-4.24189716139e-05
0.0127467619953
2.99744150215e-05
5.08299880442e-05
0.0127574069281
-6.15342861701e-05
6.58795504537e-05
-2.48820984239e-05
0.0101128921737
-3.57589770687e-05
-3.73974450263e-05
0.0101120976567
9.57617213642e-05
4.12301222246e-05
0.0101171749393
8.84187876577e-05
0.0127589382737
-5.42740128146e-05
-4.86099447296e-06
-0.0127545651031
0.0127525348992
-3.4975668117e-05
2.89413560195e-05
-0.0101053214282
0.0100787868884
-1.79829806219e-06
-0.0101168334932
4.61068630496e-05
0.0100902227171
1.03273745026e-05
-2.98041548912e-05
1.65313744218e-05
5.13024222096e-05
-1.51960000435e-05
-2.25165978611e-05
6.72884106872e-05
-4.34890552332e-05
-6.76409826461e-05
-0.0127164314625
0.0127267018785
1.23788842695e-05
6.02097990842e-05
-0.0101503887433
0.0101114461782
-0.0101459291697
0.0101068536361
6.37620281161e-05
1.27029701711e-05
-4.79058563236e-06
-0.0127330775405
2.24116884718e-05
-7.6111725171e-05
-0.0101492449393
8.17931539151e-05
-0.0127225270402
1.6576862436e-05
-0.0101448068058
-2.4037429635e-06
0.000283554162923
-4.66811847804e-05
-4.75558138966e-05
-3.4537364432e-05
-3.27863548067e-05
-0.000488782204521
0.000444814753869
-6.94839714393e-05
-1.6984761665e-06
-1.8250155428e-06
3.21854202531e-06
3.0905994475e-06
-0.000591394375336
-9.87873523698e-07
-9.50234875226e-06
-6.28777157414e-06
-1.9721243079e-05
0.000207070527746
-0.000152029150359
0.000589037811548
-1.74923859678e-06
-9.58009060066e-06
-3.04982530127e-05
-2.38994807069e-05
-0.000664244121889
0.00046754215459
-2.98086242674e-06
1.91668133832e-07
3.96965625528e-06
1.65947280307e-06
2.36910144694e-07
-2.23675659962e-06
2.83500506597e-06
-0.000699330153026
1.09615265127e-05
1.19579445618e-05
1.43449017577e-05
1.30254358156e-05
-1.37440193673e-05
-6.92840710285e-07
-8.99207067405e-07
8.36175434405e-07
-7.54229575413e-07
-2.4266475445e-06
4.49498645608e-06
0.000380972307569
1.37092742824e-05
1.42614553289e-05
9.82548054963e-06
1.09939526595e-05
-0.000948509859904
-0.000238537037283
-4.63740445742e-07
-1.00529611429e-06
7.28254330417e-07
2.44245742029e-06
3.91427052472e-06
9.07926271508e-06
7.68389472899e-06
-0.00124528216049
0.000313704297544
-4.6407126967e-07
-6.12970021128e-07
-0.00016681525707
-0.0127895408811
3.34763868287e-05
0.0127865241304
0.000156153649772
0.0127948395278
0.000168897277595
-0.000173832329294
-0.0127873280284
-1.56558066901e-05
-1.804246758e-05
0.0100597882885
3.25264357688e-05
3.46694187077e-06
0.0100472742139
-0.010074304558
-1.00751280396e-05
0.0127958696853
-0.000171055823956
-0.0127813832287
0.00015992041255
0.0100342512063
-2.7472902299e-06
-0.000161965116761
0.0127886390343
4.58886974037e-05
0.000150154187694
-0.0128027501111
0.000152580282467
-0.000156155525259
0.0128031796765
-2.39776498972e-05
-1.83733088637e-05
3.43111077685e-05
-6.19686413431e-05
-0.0100261765739
-2.33887107953e-06
0.0100279226478
-0.000164826912814
0.000138929187942
0.0127899836333
-3.57949529352e-06
0.0100208556983
-2.28467742658e-05
4.25141129214e-05
-0.0100230351272
-9.65028216177e-05
-2.48303794352e-05
0.0100272191099
4.66675568711e-05
-0.00011689633089
0.0127662504857
8.78924849202e-05
0.0127776026988
7.48130103852e-05
-0.0127778215057
-8.33577544252e-05
-0.010024475773
0.0100297700456
0.0127783520016
-0.0100266131677
-1.82631811809e-05
0.0127551415676
-2.76391220653e-05
8.01657170017e-06
0.0100420758262
1.5887194181e-05
0.010051032096
2.54505075732e-05
-4.54610928529e-06
-5.90455544852e-05
0.0127573291664
-1.91273466581e-06
3.3274436881e-05
-1.40352350575e-05
0.00999793507781
3.79439038961e-05
0.0127600170002
-2.4774943307e-05
0.0100041652366
2.30111325957e-06
-7.88382834987e-06
0.0127747062019
-6.26882438241e-05
-2.6922317459e-07
-0.0127731170955
1.21108336699e-05
0.0127852048627
-3.05958145639e-05
3.81981214106e-05
-3.51551263048e-05
5.14215542542e-05
6.73615388437e-05
-0.00995771821329
-4.21631562166e-05
0.00991072865351
-2.80460143447e-05
4.53024620531e-06
0.0127892705869
-1.85982655756e-05
-0.0127386461615
-0.000118998752649
2.38533109179e-06
4.46556711783e-06
-8.84620898103e-05
8.28743900851e-06
3.60900606511e-05
0.0100638198446
0.0100640370003
3.43669826528e-05
-7.59086555996e-06
0.0100053691413
3.66093116181e-06
-0.000101689175328
0.0127584806413
0.0100053058696
0.00995253528471
2.15019592119e-05
-3.40440039706e-05
0.000125542908117
5.08622551237e-05
0.00989222926692
-6.26072094016e-05
-4.50533174906e-07
0.0128046493652
6.24153701467e-06
0.0127798524233
-0.000102630585811
9.9798166068e-05
-0.00995165503196
0.00990038810885
0.0127968458766
-0.000161305552014
-0.000200497107083
-0.00015134574412
-0.000225067519374
0.205120086963
-0.000145082222822
0.000202719196894
4.19472087646e-05
-4.89782768928e-05
-4.40800608436e-05
-4.37815577939e-05
-5.08886778521e-05
-8.04753947867e-05
0.0514567114657
6.49484060781e-06
-0.00043976914812
2.31585635192e-06
5.78215811077e-06
9.50084347612e-06
8.86602824254e-06
0.000284103869943
-0.00115547501267
0
0
0
-9.43041144283e-30
-3.37889826713e-29
0
-7.23275420628e-30
5.73717106176e-05
6.52531479677e-05
5.94212540772e-05
6.16377296848e-05
-0.000143064196934
-0.000478798401607
0.0512538878528
3.32266135929e-05
-9.1069737746e-05
-2.63392285649e-05
0.0100449384506
0.0514795458355
-6.5088737227e-05
-8.59914179247e-05
-7.3113114142e-05
-7.6619581642e-05
5.5165349897e-05
0.051480544633
-4.52550918385e-05
-3.33222790099e-05
-3.02294915391e-05
-5.30873905169e-05
-4.72789184843e-05
5.67402898498e-05
4.53398270355e-05
0.00988871328176
-7.51330304777e-05
8.73338931404e-05
-1.51758225762e-05
0.000113976477435
7.35728576626e-05
0.00983107898995
-7.92981500296e-05
0.00973559132295
-4.39915305761e-06
2.17835867748e-05
0.00012204068369
-0.00974757815288
-0.000117842005629
0.0514405244539
-8.94278617901e-06
-1.998237149e-05
-2.06370574828e-05
-3.88474654106e-06
8.46279499293e-05
-7.06689223821e-05
7.91709122488e-05
-2.48272072449e-06
7.28707382713e-06
-3.29360886251e-06
6.0623353785e-06
5.42256188585e-05
-5.37131180948e-05
0.0513698357155
6.24651793131e-05
-1.91918507418e-06
6.73198827716e-06
0.000135473999561
0.00973179502873
-0.000128306078459
1.03420070869e-05
-2.20530526955e-05
0.000169129452239
-0.00974083089561
0.00974805190506
-0.000166740808802
-2.36061036922e-05
-2.77564272143e-05
-2.01477840029e-05
0.000392632423588
-0.000733624071224
-1.28130515665e-06
-0.00104636284873
3.47866170281e-06
1.01593412237e-05
1.27385705327e-05
8.29506365869e-06
-0.000440294616116
2.04934480859e-06
-0.00100992720968
4.85742029761e-06
8.33466703972e-06
7.19423878479e-06
0.000412650021276
-0.000518300251937
4.10716533787e-07
-5.41444328539e-07
1.87477243304e-07
-1.66838883576e-07
1.91329977111e-07
1.4212469088e-08
5.92478496402e-07
-2.89157942313e-07
-0.000816864986919
2.93544947158e-06
-2.65044605738e-06
4.8820842567e-07
0.000139600741705
1.21566159748e-06
-0.000374389917506
-1.65504183231e-06
-9.63149597201e-06
-2.04348246459e-06
-0.000192715792147
-4.06356777909e-08
-0.000550423075866
-7.22273878325e-05
-0.0127781767215
7.17123954821e-05
0.000101923237716
-0.000118847377783
0.0127815199943
-0.000111146391099
0.0127668744839
-7.78580383438e-05
0.0100442022974
1.82898422832e-06
-2.63637666807e-05
-8.22003013246e-05
0.0100584537385
-0.00012924268001
2.44454046693e-06
0.0100554236278
0.0127711510114
-2.38560324842e-05
-0.0128089377809
-5.41169123905e-05
1.60670199176e-05
0.0128225066852
0.0128015167918
2.14600260123e-05
-3.75194185804e-05
4.13799652171e-05
-9.76776397951e-05
0.000109171859299
0.00985478836353
6.20772604962e-05
0.00987072026219
-6.4341769962e-05
-3.85914103333e-05
0.0128143744452
1.28677345821e-05
-8.57951624943e-05
0.00983283365954
-0.0128208130269
-6.90401918797e-05
1.14234310575e-05
0.0128305752914
-4.35604280795e-06
0.0128297712091
9.38971991814e-06
8.73869759463e-05
0.00985703200072
9.14584895445e-05
8.68085313671e-05
0.00978272328029
-9.41187335956e-05
0.00982022034708
0.0128373332194
1.57220540869e-05
0.0128378863535
-4.98198125176e-05
2.52356356965e-05
-2.63536707221e-05
-2.69779240776e-05
-0.0128441076926
0.0128363579524
2.47802113741e-05
2.2540355837e-05
-0.00978950144857
0.00977484127797
0.000128137364285
0.00010641826978
5.65283953139e-05
-0.000104486858221
0.012834121581
-2.92622733859e-05
0.000108418914629
2.34924296403e-05
-0.0128292400325
3.25634241265e-06
2.95590275283e-05
0.0128204297353
-3.14402784956e-05
-3.03207193691e-05
0.0128273830893
2.74946923181e-05
1.15583946731e-05
0.00976879084577
0.000142561632425
0.000147560623818
-1.34865162732e-05
0.00973360041626
-0.000140175338724
-3.28694475854e-05
0.00976905878787
0.000155444845181
0.012813881074
2.6626396171e-05
0.0128106393014
8.79726038811e-06
2.81102493775e-05
-2.85009030635e-05
-2.31082742385e-05
-0.0128003714217
0.0127894559725
1.91810998929e-05
-4.48058382796e-06
-0.00976850466463
0.00017197129501
0.00976769469668
0.000159208086809
-2.42595009019e-05
-0.000154910687956
-2.25655453013e-05
0.0128024360121
0.000165451509785
2.35795044527e-05
-0.000441355135156
-0.0496410650702
0.049508280667
0.000555629631538
7.79588820225e-06
1.28576399134e-05
2.3310616063e-05
2.52619141891e-06
-2.80263709333e-05
-0.00063948158208
0.0500989282619
-5.56828626879e-05
-5.12508317473e-05
-5.13537766668e-05
-5.60411890723e-05
0.000148723204473
-0.0500611911256
0.00066737008749
-0.00109475329502
-0.0501827261068
0.0502996864898
0.000985449609154
-6.99483352691e-05
-5.10037593046e-05
-6.74266413422e-05
-5.53066037685e-05
0.000236279221239
-0.000863818168527
-3.20846168544e-05
-2.54380572151e-05
-3.26220021588e-05
-2.42776916994e-05
0.000160766636155
0.0505299249338
0.000736343992698
-0.0504487766177
-4.11587043039e-05
-0.00037400129957
-0.000260766209869
0.000499204630241
0.000401794163204
-2.41332670154e-07
-4.37506789483e-05
-2.56932079493e-05
-2.55744504469e-05
-4.26807847625e-05
-0.000713696459195
0.000844766088654
0.000379103927983
-8.41091875841e-08
-3.6156772582e-05
-1.55135277252e-05
3.52154384855e-08
-0.000354499194309
5.27060964667e-06
-0.00029547944616
-0.000328493126939
-1.68625192046e-07
5.16089407482e-06
7.93507138433e-06
7.93143758319e-06
0.000541891731913
0.000123511645063
9.35405360528e-06
-0.000300642887562
0.000128942611582
2.44275100098e-05
0.000140772839322
-7.61841162118e-09
1.17362360674e-05
1.09295893597e-05
1.25030921862e-05
6.567248071e-06
8.93992343366e-06
7.20076564157e-06
5.83484548911e-06
6.80537939714e-06
-0.00053837775784
-8.71293783028e-05
-2.03441583413e-07
0.000640938753765
-4.4840594364e-09
-1.44408917131e-28
2.29722615552e-09
0
2.18683328088e-09
0
3.84552198045e-29
9.10683662257e-28
-5.47167285539e-10
3.35932894883e-08
-1.39910099695e-07
1.78863643156e-08
-3.279431776e-08
-7.19532384466e-08
8.28041668412e-08
0
1.04386344444e-28
1.25981424366e-09
1.27115533114e-09
0
0
-2.5309695748e-09
1.06513092641e-28
1.61094106416e-08
-6.60880212472e-09
7.90371468763e-12
-3.24702996291e-08
2.57757038611e-10
-1.9316045031e-28
0
0
0
6.32522377621e-33
2.26148550482e-30
0
0
0
0
0
0
6.27949215211e-31
8.51207959223e-05
3.18181280278e-05
5.50064524682e-05
4.37857566071e-05
4.35930515441e-05
0.0494069109712
-7.33562352763e-05
1.78778730799e-05
-0.0496105668344
0.0494274923935
0.000254914187544
1.91657630751e-05
2.16221108572e-05
2.83472663547e-05
9.50826224683e-06
-4.43810036358e-05
-0.049631398722
6.19374864248e-05
-8.05559527144e-05
-0.0105594769998
0.000103991953041
0.0105520402488
-8.78638640167e-05
0.010612420749
9.97332036973e-05
3.77711141862e-05
-1.96497785439e-05
-0.000106403181336
-0.0106277008434
7.43331509402e-05
4.22227178358e-05
5.81850041462e-05
6.33447422923e-05
-0.000203877574747
0.0123221462042
0.0122294627704
0.012248291641
0.012311327081
-0.000159298478765
0.00011388610381
4.58968655571e-05
-3.61331775263e-05
-0.000124269206263
0.0106091404165
0.000366203893626
-1.4426610451e-05
1.28617539267e-06
-8.16594563688e-06
-1.20029846634e-05
8.79748389331e-06
-0.0497276911153
0.049860713421
-3.61763692098e-05
-4.39323602333e-05
-3.27140972528e-05
-4.36956750991e-05
4.12479653326e-05
-0.0498545142569
0.000475389913111
0.0106301142807
3.55698734889e-05
-4.74302430155e-06
-0.0106449066946
8.08131382707e-05
0.0106400226192
-2.46295718054e-06
6.63524537294e-05
-3.9877231261e-05
-0.0106639484114
1.48813980406e-05
0.000807760811888
2.45616761201e-05
4.24384642183e-05
3.82344729242e-05
2.22451660145e-05
0.0493630541386
-0.000193505543257
-0.000144965187516
-0.000189465405237
-0.000150899712658
-4.40447062365e-05
-2.28144319766e-05
-2.75105369179e-05
-1.68206661218e-05
0.0497980331872
-2.3843865e-05
-3.71675917084e-05
-2.52509868187e-05
-3.78244549075e-05
0.000102844425553
0.0498555053721
0.000831833589317
-1.03551971764e-05
-3.23078023001e-05
-1.65774594906e-05
-2.53318480232e-05
3.08558135824e-06
-1.81067992872e-05
0.0106229787377
9.41961511903e-05
0.0106553913461
4.75932794675e-05
-4.30344223265e-05
-0.0106400777473
0.000135789212166
-0.000162538595654
2.15929811483e-05
-2.23244695751e-06
5.43861090219e-05
-4.99233316614e-05
0.010630004259
0.0106231830343
4.61447768879e-05
-4.21446896282e-06
5.42997784483e-05
-7.7496045996e-05
-0.0106244677899
0.0499576851749
-3.75388457024e-05
-3.64662196076e-05
-2.21457731199e-05
-5.42812551954e-05
-0.00111113453105
6.48910436341e-05
0.00135322140837
-4.69257009486e-05
-8.37498461526e-05
-6.11757328839e-05
-7.28610932665e-05
0.0504841430577
-1.99208616286e-05
-0.00159472907956
-4.57642070611e-05
0.0106761701508
0.000155752543586
-0.000182365452757
-1.10595665583e-05
7.50966997061e-05
-0.0107244381169
0.000223155999387
0.0107162798018
-0.000248948524496
6.14132490066e-05
-6.83809947329e-06
5.48616701679e-05
-9.62312510509e-05
0.0106314126727
0.0001166154523
-1.80865097922e-05
0.000132235413404
-0.000154368572331
-0.0106210587071
0.0105994849904
0.000823817694341
-4.4668887758e-05
-4.63305036682e-05
-4.06993181295e-05
-5.07612350399e-05
0.000106791120368
0.050347961929
-3.46962394802e-05
-3.74488407367e-05
-3.85980292293e-05
-3.36082605739e-05
0.000123558388515
-0.0502692454154
0.000765985522173
5.94106456257e-05
0.0105851014826
8.64221504118e-06
-0.0106000155356
0.0105671780118
-7.2407177475e-06
5.73244475408e-05
-0.0105701734506
3.03808257665e-05
0.0104246811129
-7.32099347866e-06
2.94198839146e-05
-1.42378560635e-05
-0.0104240892175
1.32406789452e-05
0.00117397266172
-7.64125006865e-05
-9.38231519287e-05
-7.32580809775e-05
-9.2085533134e-05
0.0505536097446
0.000261155778988
0.0504496754687
-4.97107366631e-05
-3.78725076583e-05
-3.84247505852e-05
-4.72493655855e-05
0.000193227514129
-5.23003895159e-05
-6.22152488923e-05
-5.18425878514e-05
-6.73633663187e-05
0.0506240484266
0.000996824564547
0.000236677399141
5.39664162896e-05
0.0105749270889
4.40359894859e-05
-1.49137617263e-05
0.000109967543211
-0.0105698985791
8.46079075275e-05
0.0105524703019
1.81024795555e-05
-8.01691748273e-06
2.48667352968e-05
-2.35063055471e-05
0.0104370220287
2.45743496239e-05
-9.21246654634e-06
4.61552688186e-05
-3.76450886908e-05
-0.0104484386608
0.0104481770571
1.05294470307e-05
0.0104182459134
1.87605017789e-05
-0.0104060250137
3.89292860832e-05
-0.0104317375116
0.0104313473741
-7.96168418573e-06
1.41020599471e-05
0.000284746519357
-5.58880292678e-05
-5.53249956039e-05
-4.80644613957e-05
0.000531055464059
-0.000130010001176
-0.000264487247345
-9.64317548362e-07
0.000414595067893
0.000363564355005
-5.13143063723e-05
-3.50129790236e-05
-4.47533237525e-05
-0.000154993108908
-8.42600050437e-07
-2.04249027008e-07
-5.79673986967e-05
-4.97379045454e-05
-6.62286977437e-05
-0.000276888682935
0.000673994964072
-1.08946635492e-07
-6.16368148906e-09
2.54068049562e-07
-2.13575319567e-08
1.31075131859e-07
2.56119751801e-08
-7.09029980943e-08
2.60273321879e-07
-1.51362285331e-07
-7.0346794037e-08
-4.92027490201e-08
1.34037793058e-07
-2.46789082066e-08
-1.77946379463e-08
1.7968650278e-07
-1.18903276428e-07
-4.4302097153e-08
2.54834919688e-07
1.59353627018e-08
-1.15594651383e-07
-3.53025280012e-06
-1.12524499078e-06
8.49538550113e-08
-5.40485152721e-08
-5.20800652086e-08
1.41542308013e-07
-4.18607792629e-08
-1.47896765222e-06
-1.41998020252e-08
0.000370013360374
-2.95992548501e-05
-1.60773011942e-05
-1.41679480076e-05
-7.81702804018e-07
-1.04779481604e-05
-9.26731730213e-05
-1.87955150134e-06
2.44956386835e-06
4.80532787725e-07
0.000310435969085
-4.1860098773e-07
0.000262166426694
0.000413656478107
-1.82641591214e-07
-4.51249549724e-05
-2.44613682412e-05
-2.73383396365e-05
-0.0003681141903
0.000135289240367
-2.52517040362e-07
-5.90271030926e-06
1.99478929195e-06
-1.20971653202e-05
-1.63328957874e-07
0.000333733157457
0.000313924198801
-2.84049953537e-06
3.16039701273e-06
-6.65720328253e-06
-3.46117790071e-08
-1.38159961971e-07
8.51978059788e-08
-8.92718858142e-08
1.27228190158e-08
-2.06832816919e-08
-2.87477396033e-07
1.00741116904e-07
5.12208913905e-08
-2.32043094475e-07
0.000290149611191
1.06297093162e-06
3.88073313846e-06
1.50734285228e-05
6.70514851525e-06
0.000817597249562
-0.000274219732328
0.000435956387354
-2.91841316943e-08
3.34939442291e-06
9.85581553825e-06
5.18661238774e-06
1.96825996863e-06
0.00024889798113
1.57148357395e-05
1.43989369364e-05
1.09612463234e-05
0.000431480074661
1.55756259703e-08
-1.10838881255e-07
-3.03364726858e-08
-1.53251156735e-07
9.69111301501e-08
-2.95832802475e-07
-1.15198257356e-07
2.19621688433e-07
0.000137834175603
-8.89681995052e-08
6.53654564124e-06
9.28741127108e-06
8.31328332549e-06
-1.96386149044e-07
-0.000455488327497
8.58083340747e-06
7.31976532581e-06
7.96298789992e-06
0.00063938305681
-1.61732775662e-05
1.92196041057e-07
-9.74778710266e-08
-3.17754150746e-07
-2.8625105833e-07
2.9190671096e-07
3.54777953258e-07
-2.12598856493e-07
-2.94083538822e-07
0.000129245971906
1.50678887864e-06
1.37810670279e-05
1.34816050861e-05
1.32843974677e-05
9.51407560511e-05
-0.000300774706651
-9.89143210058e-08
9.37766284386e-06
8.45637649282e-06
1.02981440959e-05
3.07721161077e-07
1.09966683765e-05
8.89035411189e-06
1.08548341095e-05
-0.000206396888339
1.0584419257e-05
3.72348230106e-07
-3.95191025444e-07
-2.89291444212e-07
6.47521867804e-07
5.01822427464e-07
-4.28285565272e-07
9.71713139649e-07
-4.5139093179e-07
0.012429257061
4.01459707349e-05
6.14322454552e-06
4.61490933226e-06
-0.0124464974302
-1.57581591834e-06
-0.0124215931333
0.0123899410401
8.62310409329e-06
9.21189190073e-05
-5.92205299146e-05
-8.18313351799e-05
-0.0105734594558
-6.16209052625e-05
-0.0105761235175
0.00011265543293
0.010565714881
1.05922295271e-05
0.0124002070264
9.7707989025e-05
-0.010593131448
1.16657280409e-05
-0.012441110359
0.0124382855055
1.55249305289e-05
2.10547199967e-05
-0.0124493822876
-3.0219788535e-05
-0.01244914461
0.012427798694
5.43483048514e-05
-3.73938108493e-05
-0.0106010202525
0.010587912027
-6.02185973483e-06
-9.06990277141e-05
8.23146465272e-05
-0.0106501270356
0.0124107236609
3.15729062914e-05
-0.0124600246345
-0.010619417293
-0.0123884502372
6.36343214047e-05
7.92231016185e-05
-3.86580834606e-05
0.0123584803427
-4.1283445765e-05
0.0124077348572
6.75304181064e-05
-6.16183817761e-05
0.01059015935
-0.000130083700221
-5.45133497037e-05
-0.000137236684116
0.00012974786657
0.0106178301162
-2.22743522143e-05
9.47689637089e-05
0.0123853688181
-0.000139904174186
0.0105993740958
-3.95604210159e-05
0.012483402806
-2.39644896521e-05
5.42669991554e-05
-0.0124867825118
-0.0124659394419
6.25664186896e-05
0.0124547376292
6.94159894838e-06
6.72269924338e-05
-0.0106667021652
1.8835414987e-05
-0.0106689795758
6.27137401856e-05
0.0106512340111
-0.0124736313094
7.68386540657e-05
0.0124768160145
5.42532273033e-05
-0.0106930467522
0.0124997435803
6.91696306696e-05
-5.13561856516e-05
-0.0124976608906
-8.96784499252e-05
-0.0125148864861
0.0125170596468
0.000111455730533
4.25559610146e-05
-0.0106697440424
0.0106496216222
6.95267847002e-05
-3.50808013904e-05
-0.0106934263143
1.35631842083e-05
0.0124979632965
-0.0125109262678
9.30503715485e-05
-0.0106957935102
-0.000106310089224
-0.0124626105909
3.96384622268e-06
0.0124492017191
0.000123454850724
0.0124361618203
8.09915072636e-05
-2.73426230877e-05
0.000106802212648
0.0106257933353
4.20434578957e-08
0.0106423759977
7.50510313023e-05
0.0124206357046
9.78476215051e-05
0.0106394422969
8.45923729787e-05
-0.000136630897919
0.0124403167469
1.4004719271e-05
0.00015588567742
-0.0124026614682
0.00017066088324
0.0123893559841
-0.000158105256013
-3.97803888888e-05
0.000121133665815
-0.000145179884854
-9.57678351506e-06
-0.0106491295704
0.000108035658413
0.0106574684273
-0.00012033016416
0.000189479850787
0.012433979031
9.3864290386e-05
-0.0124897469519
0.000132955881552
-2.45139663944e-05
0.0124812582761
-0.000110815327397
0.0125126174026
0.000133548994243
2.94198333259e-05
0.0106392560589
5.41188433384e-05
-5.59397342718e-05
0.0106188693864
2.6923725964e-05
0.0125080842305
0.000154653235524
0.0106296149839
0.0124748039041
0.000163237501987
-1.10991568398e-05
-0.000193400348061
-0.0125072074782
0.0125108226806
0.00021248537184
2.07416703054e-05
-0.0106392556747
0.0106453333279
4.45897744685e-05
-6.52772174584e-05
3.35222941267e-05
0.0124752774287
0.000184100010928
-0.000252560874362
-0.0124286232912
-1.18349222927e-05
0.0124378968948
0.000269470146661
-1.4566077864e-05
0.0123779365321
0.000210523144761
-4.75654794634e-05
-0.000197543576
-2.83825341515e-05
0.000171466034337
0.0106871952959
-0.000198898386775
-8.46393165266e-06
0.0106773767583
0.00012467408043
0.0123873902134
-4.24767056469e-05
-0.000248202264899
0.000230589095629
-2.34516687596e-05
0.0106916955868
0.00014175509652
-0.000294969802452
-3.96478937612e-05
0.0124812869491
0.000312887616605
-2.1841268667e-05
-0.0124370941807
0.000326859036006
0.0125229778527
-0.000326635899739
-1.09617362103e-05
1.1813552116e-06
0.00020011126745
-0.000225593289546
-0.0107022954507
9.87095096959e-05
0.000196734914876
0.0106840507137
-0.000293138900954
-5.06324312578e-05
0.000167775052465
0.000347781060724
0.0125497743258
9.39402467734e-06
-0.0124744641759
0.00026875113422
-5.10458565206e-05
0.0124890121085
-0.000232161878894
0.0125128567098
0.000249225365632
2.25739185478e-05
0.0106636262036
8.11093239289e-05
-0.000109396132494
0.0106243120981
7.50207178218e-05
0.0125255232227
0.000283690338263
0.0106677678984
0.000307049244303
-7.24476541236e-05
0.0125208299039
-0.01255146524
-0.000342946137836
0.000348760018974
0.0125948223824
-0.01067013734
0.000123305844873
0.0106496645582
9.80475457061e-05
-0.000132765480702
9.58335426765e-05
0.00031871523537
0.0125767265735
-0.000165064823207
-0.0125549308106
-6.69849998643e-05
0.0125547240717
0.000177689260828
0.0125339439522
0.000145357853925
-0.0125364482857
5.907757801e-05
1.25410049053e-05
0.0105711776369
6.96461509488e-05
0.0105410292831
-0.0105600693641
2.59934751764e-06
0.012532286034
-0.012554240022
0.000159641442127
0.0105246587283
4.27718549664e-06
-0.000192711758731
0.0125610208544
-5.93598943719e-05
0.000202124537135
-0.0125349996057
0.000217835696415
0.0125416146487
5.10819743854e-05
1.78247102561e-05
6.27203010646e-05
-0.01051669056
1.53016169322e-05
0.0105119411922
0.000223387968442
0.0125682796652
6.66432265158e-06
0.0125810136215
0.000202354875056
-4.05938313724e-05
-0.0125746504028
-0.000219469164634
-0.0125983715893
0.012604984718
0.000205333731521
4.22536643044e-05
-0.0104668351427
0.0104622409511
3.06854942301e-05
-9.3381373435e-06
-0.0104296908255
1.32793556386e-05
0.0125893029618
-0.0125911555247