/*--------------------------------*- C++ -*----------------------------------*\
| =========                 |                                                 |
| \\      /  F ield         | OpenFOAM: The Open Source CFD Toolbox           |
|  \\    /   O peration     | Version:  v1906                                 |
|   \\  /    A nd           | Web:      www.OpenFOAM.com                      |
|    \\/     M anipulation  |                                                 |
\*---------------------------------------------------------------------------*/
FoamFile
{
    version     2.0;
    format      ascii;
    class       volVectorField;
    location    "13";
    object      force.turbine;
}
// * * * * * * * * * * * * * * * * * * * * * * * * * * * * * * * * * * * * * //

dimensions      [1 -2 -2 0 0 0 0];


internalField   nonuniform List<vector> 
28582
(
(0 0 0)
(0 0 0)
(0 0 0)
(0 0 0)
(0 0 0)
(0 0 0)
(0 0 0)
(0 0 0)
(0 0 0)
(0 0 0)
(0 0 0)
(0 0 0)
(0 0 0)
(0 0 0)
(0 0 0)
(0 0 0)
(0 0 0)
(0 0 0)
(0 0 0)
(0 0 0)
(0 0 0)
(0 0 0)
(0 0 0)
(0 0 0)
(0 0 0)
(0 0 0)
(0 0 0)
(0 0 0)
(0 0 0)
(0 0 0)
(0 0 0)
(0 0 0)
(0 0 0)
(0 0 0)
(0 0 0)
(0 0 0)
(0 0 0)
(0 0 0)
(0 0 0)
(0 0 0)
(0 0 0)
(0 0 0)
(0 0 0)
(0 0 0)
(0 0 0)
(0 0 0)
(0 0 0)
(0 0 0)
(0 0 0)
(0 0 0)
(0 0 0)
(0 0 0)
(0 0 0)
(0 0 0)
(0 0 0)
(0 0 0)
(0 0 0)
(0 0 0)
(0 0 0)
(0 0 0)
(0 0 0)
(0 0 0)
(0 0 0)
(0 0 0)
(0 0 0)
(0 0 0)
(0 0 0)
(0 0 0)
(0 0 0)
(0 0 0)
(0 0 0)
(0 0 0)
(0 0 0)
(0 0 0)
(0 0 0)
(0 0 0)
(0 0 0)
(0 0 0)
(0 0 0)
(0 0 0)
(0 0 0)
(0 0 0)
(0 0 0)
(0 0 0)
(0 0 0)
(0 0 0)
(0 0 0)
(0 0 0)
(0 0 0)
(0 0 0)
(0 0 0)
(0 0 0)
(0 0 0)
(0 0 0)
(0 0 0)
(0 0 0)
(0 0 0)
(0 0 0)
(0 0 0)
(0 0 0)
(0 0 0)
(0 0 0)
(0 0 0)
(0 0 0)
(0 0 0)
(0 0 0)
(0 0 0)
(0 0 0)
(0 0 0)
(0 0 0)
(0 0 0)
(0 0 0)
(0 0 0)
(0 0 0)
(0 0 0)
(0 0 0)
(0 0 0)
(0 0 0)
(0 0 0)
(0 0 0)
(0 0 0)
(0 0 0)
(0 0 0)
(0 0 0)
(0 0 0)
(0 0 0)
(0 0 0)
(0 0 0)
(0 0 0)
(0 0 0)
(0 0 0)
(0 0 0)
(0 0 0)
(0 0 0)
(0 0 0)
(0 0 0)
(0 0 0)
(0 0 0)
(0 0 0)
(0 0 0)
(0 0 0)
(0 0 0)
(0 0 0)
(0 0 0)
(0 0 0)
(0 0 0)
(0 0 0)
(0 0 0)
(0 0 0)
(0 0 0)
(0 0 0)
(0 0 0)
(0 0 0)
(0 0 0)
(0 0 0)
(0 0 0)
(0 0 0)
(0 0 0)
(0 0 0)
(0 0 0)
(0 0 0)
(0 0 0)
(0 0 0)
(0 0 0)
(0 0 0)
(0 0 0)
(0 0 0)
(0 0 0)
(0 0 0)
(0 0 0)
(0 0 0)
(0 0 0)
(0 0 0)
(0 0 0)
(0 0 0)
(0 0 0)
(0 0 0)
(0 0 0)
(0 0 0)
(0 0 0)
(0 0 0)
(0 0 0)
(0 0 0)
(0 0 0)
(0 0 0)
(0 0 0)
(0 0 0)
(0 0 0)
(0 0 0)
(0 0 0)
(0 0 0)
(0 0 0)
(0 0 0)
(0 0 0)
(0 0 0)
(0 0 0)
(0 0 0)
(0 0 0)
(0 0 0)
(0 0 0)
(0 0 0)
(0 0 0)
(0 0 0)
(0 0 0)
(0 0 0)
(0 0 0)
(0 0 0)
(0 0 0)
(0 0 0)
(0 0 0)
(0 0 0)
(0 0 0)
(0 0 0)
(0 0 0)
(0 0 0)
(0 0 0)
(0 0 0)
(-0.00314596996973 5.82678683987e-05 0)
(0 0 0)
(0 0 0)
(0 0 0)
(0 0 0)
(-2.378258028e-05 2.01643209757e-07 0)
(0 0 0)
(-2.36253765117e-06 1.31838394125e-08 0)
(0 0 0)
(0 0 0)
(0 0 0)
(0 0 0)
(0 0 0)
(0 0 0)
(0 0 0)
(0 0 0)
(0 0 0)
(0 0 0)
(0 0 0)
(0 0 0)
(-0.0206402461528 8.48328637003e-06 0.000642007385634)
(0 0 0)
(0 0 0)
(0 0 0)
(-0.0280341066392 0.000633509944761 0)
(0 0 0)
(0 0 0)
(-0.265673237671 -0.0307316268282 0.0413778043995)
(-2.17752791354 -0.278595415584 0.369912198474)
(-0.0762317306199 0.00172267160412 0)
(-1.15612503081 -0.0414757649515 0.0760071641943)
(-0.00559807953416 6.2797022936e-05 0)
(-0.0751173314419 0.00169748860218 0)
(0 0 0)
(0 0 0)
(0 0 0)
(0 0 0)
(0 0 0)
(-0.0160530000219 0.000498736999673 0)
(0 0 0)
(0 0 0)
(0 0 0)
(-0.027509898307 0.000621663974572 0)
(0 0 0)
(0 0 0)
(0 0 0)
(0 0 0)
(0 0 0)
(0 0 0)
(0 0 0)
(0 0 0)
(-1.41708277008e-05 1.36842016089e-07 0)
(0 0 0)
(-8.56986011872e-06 8.27557120167e-08 0)
(-0.000120741358085 1.73723372809e-06 0)
(-0.000572294977605 8.23421363877e-06 0)
(-7.28143625025e-05 1.04765731009e-06 0)
(-0.000333504141778 4.79847711456e-06 0)
(0 0 0)
(0 0 0)
(-0.00032913576064 3.46807202199e-06 0)
(0 0 0)
(0 0 0)
(0 0 0)
(0 0 0)
(0 0 0)
(0 0 0)
(-0.0144730483219 0.000268061578167 0)
(-0.000666985752361 1.03987866324e-05 0)
(-0.00327479514719 6.06538951437e-05 0)
(-2.61147641757e-05 3.38155514236e-07 0)
(-0.000121016747737 1.74119605052e-06 0)
(-3.32277489901e-06 1.85423206487e-08 0)
(-2.70589386911e-05 3.50381464913e-07 0)
(0 0 0)
(0 0 0)
(0 0 0)
(0 0 0)
(0 0 0)
(-0.000354257317579 3.73277546412e-06 0)
(0 0 0)
(0 0 0)
(0 0 0)
(0 0 0)
(0 0 0)
(0 0 0)
(0 0 0)
(0 0 0)
(0 0 0)
(0 0 0)
(0 0 0)
(0 0 0)
(0 0 0)
(0 0 0)
(0 0 0)
(0 0 0)
(0 0 0)
(0 0 0)
(0 0 0)
(0 0 0)
(-0.00508847317226 5.93804661204e-05 0)
(0 0 0)
(0 0 0)
(0 0 0)
(0 0 0)
(0 0 0)
(-0.00437345629008 4.90596879308e-05 0)
(0 0 0)
(0 0 0)
(0 0 0)
(0 0 0)
(0 0 0)
(0 0 0)
(0 0 0)
(0 0 0)
(0 0 0)
(0 0 0)
(0 0 0)
(0 0 0)
(0 0 0)
(0 0 0)
(0 0 0)
(0 0 0)
(0 0 0)
(0 0 0)
(0 0 0)
(0 0 0)
(0 0 0)
(0 0 0)
(-0.0359337295663 0.000925995221355 0)
(-0.00825197129853 0.000147821672107 0)
(-0.0136048155094 0.000243709836662 0)
(-0.0101882551776 0.00019954105388 0)
(-0.0192345484468 0.000495665219326 0)
(0 0 0)
(0 0 0)
(0 0 0)
(0 0 0)
(0 0 0)
(0 0 0)
(0 0 0)
(0 0 0)
(0 0 0)
(0 0 0)
(-0.00495880475061 5.56258934441e-05 0)
(0 0 0)
(-0.00793467334867 0.000155403752123 0)
(0 0 0)
(0 0 0)
(-0.533236219232 -0.0514607339967 0.071729987636)
(-0.280024115054 -0.0215650830318 0.03162030157)
(-0.23970390237 -0.00265862605225 0.00897717147887)
(-0.0407674419944 0.000921255678248 0)
(-1.25182420983 -0.136246652446 0.186528692869)
(-0.107363186513 -0.00566275574197 0.0091800379146)
(-0.102200706351 0.00173815577638 0.00061762371989)
(-1.47309492835 -0.159218282718 0.217690508858)
(-5.57740587763 -0.63101586012 0.8584075557)
(-0.637024980929 -0.0242427439605 0.043375909535)
(-0.561137664487 -0.0137136637676 0.0295283884236)
(-3.30045807199 -0.381584840089 0.516865734425)
(-0.301184032909 -0.00714841481277 0.0155716458024)
(-2.50105637096 -0.263134985864 0.361749287112)
(-0.13458836581 -0.0077583759897 0.0122099434233)
(-0.00899093172614 0.000176090995045 0)
(-0.0192233858606 0.000434406784258 0)
(-0.0191237062458 0.00043215424138 0)
(-0.0246971765863 0.000636434563735 0)
(-0.0246958101043 0.000636399350139 0)
(-0.0460730242128 0.00104115031735 0)
(-0.414069744268 -0.0344364913169 0.0494357709743)
(-0.16032854547 -0.00495846679601 0.00987254954936)
(-0.206697557668 0.00140719077018 0.00359936813827)
(-0.0403572318461 0.00091198581951 0)
(-0.0758651555447 -0.00151778455979 0.00375179397042)
(-0.101146319813 0.00178724415151 0.000538804228443)
(-0.74366303253 -0.0612100908304 0.0882641147037)
(0 0 0)
(0 0 0)
(0 0 0)
(0 0 0)
(0 0 0)
(0 0 0)
(0 0 0)
(0 0 0)
(0 0 0)
(0 0 0)
(0 0 0)
(0 0 0)
(0 0 0)
(0 0 0)
(0 0 0)
(0 0 0)
(0 0 0)
(0 0 0)
(0 0 0)
(0 0 0)
(0 0 0)
(0 0 0)
(0 0 0)
(-0.00490450961927 5.50168323211e-05 0)
(0 0 0)
(-0.00793371971478 0.000155385074822 0)
(0 0 0)
(0 0 0)
(0 0 0)
(-0.03592434501 0.000925753385775 0)
(-0.0134038990196 0.000240110719504 0)
(-0.00806502600221 0.000144472827898 0)
(-0.0192308094404 0.000495568866898 0)
(0 0 0)
(-0.0101847197577 0.000199471811267 0)
(0 0 0)
(0 0 0)
(0 0 0)
(0 0 0)
(0 0 0)
(0 0 0)
(0 0 0)
(0 0 0)
(0 0 0)
(0 0 0)
(0 0 0)
(0 0 0)
(0 0 0)
(0 0 0)
(0 0 0)
(0 0 0)
(0 0 0)
(0 0 0)
(0 0 0)
(0 0 0)
(0 0 0)
(0 0 0)
(0 0 0)
(0 0 0)
(0 0 0)
(0 0 0)
(0 0 0)
(0 0 0)
(0 0 0)
(0 0 0)
(0 0 0)
(0 0 0)
(0 0 0)
(0 0 0)
(0 0 0)
(0 0 0)
(-0.0150613438901 0.000319606229619 0)
(0 0 0)
(0 0 0)
(0 0 0)
(0 0 0)
(0 0 0)
(0 0 0)
(0 0 0)
(-0.00336053025978 7.13114589035e-05 0)
(0 0 0)
(0 0 0)
(0 0 0)
(0 0 0)
(0 0 0)
(0 0 0)
(0 0 0)
(0 0 0)
(0 0 0)
(0 0 0)
(0 0 0)
(0 0 0)
(0 0 0)
(0 0 0)
(0 0 0)
(0 0 0)
(0 0 0)
(0 0 0)
(0 0 0)
(0 0 0)
(0 0 0)
(0 0 0)
(0 0 0)
(0 0 0)
(0 0 0)
(0 0 0)
(0 0 0)
(-0.322813665846 0.00925139908751 0)
(-0.00773265972063 0.000164089355922 0)
(0 0 0)
(0 0 0)
(0 0 0)
(0 0 0)
(0 0 0)
(0 0 0)
(-0.0708613401465 0.00204496902329 0)
(0 0 0)
(0 0 0)
(0 0 0)
(0 0 0)
(0 0 0)
(0 0 0)
(0 0 0)
(0 0 0)
(0 0 0)
(0 0 0)
(0 0 0)
(0 0 0)
(0 0 0)
(0 0 0)
(0 0 0)
(0 0 0)
(0 0 0)
(0 0 0)
(0 0 0)
(0 0 0)
(0 0 0)
(0 0 0)
(0 0 0)
(0 0 0)
(0 0 0)
(0 0 0)
(0 0 0)
(-1.52170102729 0.0555033821498 0)
(-0.0435172175416 0.00162141934758 0)
(0 0 0)
(0 0 0)
(0 0 0)
(0 0 0)
(0 0 0)
(0 0 0)
(-0.333803482899 0.0120497181748 0)
(-0.00657893514914 0.000262698907399 0)
(0 0 0)
(0 0 0)
(0 0 0)
(0 0 0)
(0 0 0)
(0 0 0)
(0 0 0)
(0 0 0)
(0 0 0)
(0 0 0)
(0 0 0)
(0 0 0)
(0 0 0)
(0 0 0)
(0 0 0)
(0 0 0)
(0 0 0)
(0 0 0)
(0 0 0)
(0 0 0)
(0 0 0)
(0 0 0)
(0 0 0)
(0 0 0)
(0 0 0)
(0 0 0)
(0 0 0)
(0 0 0)
(0 0 0)
(0 0 0)
(0 0 0)
(0 0 0)
(0 0 0)
(-2.56627127256 0.0779221514618 0)
(-0.0774866340448 0.00235280085113 0)
(0 0 0)
(0 0 0)
(0 0 0)
(0 0 0)
(0 0 0)
(0 0 0)
(-2.57053905071 0.0774221992376 0.000642005557388)
(-0.572541856349 0.0173846365058 0)
(-0.0160528350042 0.000498731872878 0)
(0 0 0)
(0 0 0)
(0 0 0)
(0 0 0)
(0 0 0)
(0 0 0)
(-0.046997193607 0.00142702078213 0)
(-0.0774846402036 0.00235274031022 0)
(-0.0160527993704 0.000498730765801 0)
(0 0 0)
(0 0 0)
(0 0 0)
(0 0 0)
(0 0 0)
(0 0 0)
(0 0 0)
(0 0 0)
(0 0 0)
(0 0 0)
(0 0 0)
(0 0 0)
(0 0 0)
(0 0 0)
(0 0 0)
(0 0 0)
(0 0 0)
(0 0 0)
(0 0 0)
(0 0 0)
(0 0 0)
(0 0 0)
(0 0 0)
(0 0 0)
(0 0 0)
(0 0 0)
(-0.0820464419918 0.00152090936948 0)
(-0.00248829110096 4.60867140512e-05 0)
(0 0 0)
(0 0 0)
(0 0 0)
(0 0 0)
(0 0 0)
(0 0 0)
(-0.0410606705463 0.000761148893663 0)
(-0.0741257219493 0.00137408158471 0)
(-0.0171413452179 0.000317482257283 0)
(-0.000408594767669 4.30532397735e-06 0)
(0 0 0)
(0 0 0)
(0 0 0)
(0 0 0)
(0 0 0)
(0 0 0)
(-0.00118928515104 1.8541809157e-05 0)
(-0.00217557429125 4.02947509716e-05 0)
(-0.000387643408117 4.08456150613e-06 0)
(0 0 0)
(0 0 0)
(0 0 0)
(0 0 0)
(0 0 0)
(0 0 0)
(0 0 0)
(0 0 0)
(0 0 0)
(0 0 0)
(0 0 0)
(0 0 0)
(0 0 0)
(0 0 0)
(0 0 0)
(0 0 0)
(0 0 0)
(0 0 0)
(0 0 0)
(0 0 0)
(0 0 0)
(0 0 0)
(0 0 0)
(0 0 0)
(0 0 0)
(0 0 0)
(-0.000186486747832 1.87366558055e-06 0)
(-0.000190162800318 1.91059953482e-06 0)
(-2.46341058691e-05 2.08862962658e-07 0)
(0 0 0)
(0 0 0)
(0 0 0)
(0 0 0)
(0 0 0)
(0 0 0)
(0 0 0)
(-2.44640042576e-05 2.07420737529e-07 0)
(-2.43825843565e-05 2.06730409986e-07 0)
(-2.39929505906e-06 1.33889594294e-08 0)
(0 0 0)
(0 0 0)
(0 0 0)
(0 0 0)
(0 0 0)
(0 0 0)
(0 0 0)
(0 0 0)
(0 0 0)
(0 0 0)
(0 0 0)
(0 0 0)
(0 0 0)
(0 0 0)
(0 0 0)
(0 0 0)
(0 0 0)
(0 0 0)
(0 0 0)
(0 0 0)
(0 0 0)
(0 0 0)
(0 0 0)
(0 0 0)
(0 0 0)
(0 0 0)
(0 0 0)
(0 0 0)
(0 0 0)
(0 0 0)
(0 0 0)
(0 0 0)
(0 0 0)
(0 0 0)
(0 0 0)
(0 0 0)
(-0.00336063806161 7.13137464905e-05 0)
(-0.00913497960841 0.000193847004065 0)
(-0.00203827459568 4.32527975728e-05 0)
(-0.0868344685404 0.00217724896705 0)
(-0.0177930995713 0.000377574903588 0)
(-0.0526669358891 0.00132054740116 0)
(-0.0107919220371 0.000229007818809 0)
(0 0 0)
(0 0 0)
(0 0 0)
(-0.00240800847333 5.10986612261e-05 0)
(0 0 0)
(0 0 0)
(0 0 0)
(0 0 0)
(0 0 0)
(0 0 0)
(-0.0177922914083 0.000377557754129 0)
(-0.00397000858359 8.42447715301e-05 0)
(-0.00396999568708 8.42444978623e-05 0)
(0 0 0)
(0 0 0)
(0 0 0)
(0 0 0)
(0 0 0)
(0 0 0)
(0 0 0)
(0 0 0)
(-0.0708627163875 0.00204500873987 0)
(-0.195794850396 0.00561121319181 0)
(-0.0429804704094 0.00124036224 0)
(-0.805247844268 0.0264710638436 0)
(-0.177718218412 0.00589554492749 0)
(-0.488401437216 0.016055312309 0)
(-0.107789986819 0.00357577695581 0)
(0 0 0)
(-0.00469014830538 9.95263521751e-05 0)
(0 0 0)
(-0.022885245938 0.000778628311493 0)
(0 0 0)
(-0.0122166801436 0.000404651177987 0)
(0 0 0)
(-0.0149572178413 0.000421588463195 0)
(-0.0149568368306 0.000421577723919 0)
(-0.00284462621262 6.03638204615e-05 0)
(-0.177715161073 0.00589544350467 0)
(-0.0377315401825 0.00128374610882 0)
(-0.0377312181755 0.00128373515313 0)
(-0.00740996383535 0.000245439068517 0)
(0 0 0)
(0 0 0)
(0 0 0)
(-0.00336065785548 7.13141665225e-05 0)
(0 0 0)
(0 0 0)
(0 0 0)
(-0.333794939561 0.0120494097754 0)
(-0.907363693671 0.0327542322083 0)
(-0.202455525817 0.00730828812164 0)
(-2.23492927816 0.0794348648403 0)
(-0.492915315319 0.017388452204 0)
(-1.33999502566 0.0472706745627 0)
(-0.298978564308 0.0105469931932 0)
(0 0 0)
(-0.0263943634822 0.000983434466513 0)
(0 0 0)
(-0.066703658115 0.00235308852235 0)
(0 0 0)
(-0.0404596283917 0.00142728434808 0)
(0 0 0)
(-0.0744800671315 0.00268859932432 0)
(-0.0744774780115 0.00268850586165 0)
(-0.0140870082256 0.000564781506565 0)
(-0.492905423537 0.0173881032541 0)
(-0.10998034475 0.00387974954039 0)
(-0.109975750181 0.00387958745895 0)
(-0.0245389110899 0.000865653124108 0)
(0 0 0)
(0 0 0)
(0 0 0)
(-0.0134824593931 0.000517234411687 0)
(0 0 0)
(0 0 0)
(0 0 0)
(-7.16560049146 0.222896746309 0)
(-4.25651302285 0.129964643563 0)
(-3.93414515505 0.0888168755104 0)
(-1.87052303468 0.042228744737 0)
(-0.572586657251 0.0173859968384 0)
(-1.55643449263 0.0472595105481 0)
(-0.347278412562 0.0105447469067 0)
(-2.39312811529 0.0540270258264 0)
(-0.250765831037 0.00566126482875 0)
(-1.13626387816 0.02565218197 0)
(-0.119783241381 0.00270421471975 0)
(0 0 0)
(-0.0469975575743 0.00142703183362 0)
(0 0 0)
(-0.0904862721698 0.00204479329489 0)
(0 0 0)
(-0.0433156615772 0.000978839908341 0)
(0 0 0)
(0 0 0)
(0 0 0)
(0 0 0)
(0 0 0)
(0 0 0)
(0 0 0)
(0 0 0)
(0 0 0)
(0 0 0)
(0 0 0)
(0 0 0)
(0 0 0)
(0 0 0)
(0 0 0)
(0 0 0)
(0 0 0)
(0 0 0)
(0 0 0)
(0 0 0)
(0 0 0)
(0 0 0)
(0 0 0)
(0 0 0)
(0 0 0)
(0 0 0)
(0 0 0)
(0 0 0)
(0 0 0)
(0 0 0)
(0 0 0)
(0 0 0)
(0 0 0)
(0 0 0)
(0 0 0)
(0 0 0)
(0 0 0)
(0 0 0)
(0 0 0)
(0 0 0)
(0 0 0)
(0 0 0)
(0 0 0)
(-2.39703137784 -0.27192901805 0.369910692158)
(-0.809706135695 -0.014212523949 0.0413776858411)
(-1.62046091868 -0.0305098303884 0.075463755377)
(-2.44822025189 0.0552707805037 0)
(-0.125273621342 0.00282816499975 0)
(-0.260150365031 0.0058731291486 0)
(-1.55633140845 0.0472563805046 0)
(-0.572535068814 0.0173844304093 0)
(-0.347260438102 0.0105442011309 0)
(-2.42397042915 0.0547233188817 0)
(-1.13912325237 0.0257167349218 0)
(-0.258542666896 0.00583683391304 0)
(-0.121363848025 0.00273989834046 0)
(-0.127750828654 0.00387902071234 0)
(-0.127749791877 0.0038789892317 0)
(-0.0285048235398 0.000865519246158 0)
(-0.692160826941 0.0156261550036 0)
(-0.071977315 0.00162653104794 0)
(-0.0724795223039 0.00163787984265 0)
(-0.00535533542564 6.00740163661e-05 0)
(0 0 0)
(0 0 0)
(0 0 0)
(-0.0264239133668 0.000597123072721 0)
(0 0 0)
(0 0 0)
(0 0 0)
(0 0 0)
(0 0 0)
(0 0 0)
(0 0 0)
(0 0 0)
(0 0 0)
(0 0 0)
(0 0 0)
(0 0 0)
(0 0 0)
(0 0 0)
(0 0 0)
(0 0 0)
(0 0 0)
(0 0 0)
(0 0 0)
(0 0 0)
(0 0 0)
(0 0 0)
(0 0 0)
(0 0 0)
(0 0 0)
(0 0 0)
(0 0 0)
(0 0 0)
(0 0 0)
(0 0 0)
(0 0 0)
(0 0 0)
(0 0 0)
(0 0 0)
(0 0 0)
(0 0 0)
(0 0 0)
(0 0 0)
(0 0 0)
(0 0 0)
(0 0 0)
(0 0 0)
(0 0 0)
(0 0 0)
(0 0 0)
(-0.0774848563705 0.0023527468739 0)
(0 0 0)
(0 0 0)
(-0.0451915102748 0.00102123001622 0)
(-0.0943218815014 0.00213146973823 0)
(0 0 0)
(0 0 0)
(-0.0469966236139 0.00142700347488 0)
(0 0 0)
(0 0 0)
(-0.0938414849312 0.00212061381874 0)
(-0.0440507446752 0.000995451190404 0)
(0 0 0)
(0 0 0)
(0 0 0)
(0 0 0)
(0 0 0)
(-0.0267202231677 0.000603819030898 0)
(0 0 0)
(0 0 0)
(0 0 0)
(0 0 0)
(0 0 0)
(0 0 0)
(0 0 0)
(0 0 0)
(0 0 0)
(0 0 0)
(0 0 0)
(0 0 0)
(0 0 0)
(0 0 0)
(0 0 0)
(0 0 0)
(0 0 0)
(0 0 0)
(0 0 0)
(0 0 0)
(0 0 0)
(0 0 0)
(0 0 0)
(0 0 0)
(0 0 0)
(0 0 0)
(0 0 0)
(0 0 0)
(0 0 0)
(0 0 0)
(0 0 0)
(0 0 0)
(0 0 0)
(0 0 0)
(0 0 0)
(0 0 0)
(0 0 0)
(0 0 0)
(0 0 0)
(0 0 0)
(0 0 0)
(0 0 0)
(0 0 0)
(0 0 0)
(0 0 0)
(0 0 0)
(0 0 0)
(0 0 0)
(0 0 0)
(0 0 0)
(0 0 0)
(0 0 0)
(0 0 0)
(0 0 0)
(0 0 0)
(0 0 0)
(0 0 0)
(0 0 0)
(0 0 0)
(0 0 0)
(0 0 0)
(0 0 0)
(0 0 0)
(0 0 0)
(0 0 0)
(0 0 0)
(0 0 0)
(0 0 0)
(0 0 0)
(0 0 0)
(0 0 0)
(0 0 0)
(0 0 0)
(0 0 0)
(0 0 0)
(0 0 0)
(0 0 0)
(0 0 0)
(0 0 0)
(0 0 0)
(0 0 0)
(0 0 0)
(0 0 0)
(0 0 0)
(0 0 0)
(0 0 0)
(0 0 0)
(0 0 0)
(0 0 0)
(0 0 0)
(0 0 0)
(0 0 0)
(0 0 0)
(0 0 0)
(0 0 0)
(0 0 0)
(0 0 0)
(0 0 0)
(0 0 0)
(0 0 0)
(0 0 0)
(0 0 0)
(0 0 0)
(0 0 0)
(0 0 0)
(0 0 0)
(0 0 0)
(0 0 0)
(0 0 0)
(0 0 0)
(0 0 0)
(0 0 0)
(0 0 0)
(0 0 0)
(0 0 0)
(0 0 0)
(0 0 0)
(0 0 0)
(0 0 0)
(0 0 0)
(0 0 0)
(0 0 0)
(0 0 0)
(0 0 0)
(0 0 0)
(0 0 0)
(0 0 0)
(0 0 0)
(0 0 0)
(0 0 0)
(0 0 0)
(0 0 0)
(0 0 0)
(0 0 0)
(0 0 0)
(0 0 0)
(0 0 0)
(0 0 0)
(0 0 0)
(0 0 0)
(0 0 0)
(0 0 0)
(0 0 0)
(0 0 0)
(0 0 0)
(0 0 0)
(0 0 0)
(0 0 0)
(0 0 0)
(0 0 0)
(0 0 0)
(0 0 0)
(0 0 0)
(0 0 0)
(0 0 0)
(0 0 0)
(0 0 0)
(0 0 0)
(0 0 0)
(0 0 0)
(0 0 0)
(0 0 0)
(0 0 0)
(0 0 0)
(0 0 0)
(0 0 0)
(0 0 0)
(0 0 0)
(0 0 0)
(0 0 0)
(0 0 0)
(0 0 0)
(0 0 0)
(-0.00223952488205 3.22439442716e-05 0)
(-0.00420734481652 6.05759698776e-05 0)
(-0.00116234852023 1.67239385506e-05 0)
(-0.00231235009256 3.32924577524e-05 0)
(-0.218152163686 0.00404392514371 0)
(-0.129728683096 0.00240480348472 0)
(-0.00428531764775 6.16985971121e-05 0)
(-0.00252232714327 3.63156384169e-05 0)
(-0.00242150177349 3.48639878324e-05 0)
(-0.00146924727358 2.1139615779e-05 0)
(-0.0184474312006 0.000341672839802 0)
(-0.0487288826494 0.000903295894211 0)
(-0.0108641010439 0.000201218707104 0)
(-0.000965833014539 1.38964619511e-05 0)
(-0.000227609897149 3.274864524e-06 0)
(-0.00055154016108 7.93559212367e-06 0)
(-0.0001293481669 1.86106899714e-06 0)
(0 0 0)
(-0.00136726517639 2.13166455038e-05 0)
(0 0 0)
(-3.00288205129e-05 2.89976310948e-07 0)
(0 0 0)
(-1.77988416104e-05 1.71876295545e-07 0)
(0 0 0)
(0 0 0)
(0 0 0)
(0 0 0)
(0 0 0)
(0 0 0)
(0 0 0)
(0 0 0)
(0 0 0)
(0 0 0)
(0 0 0)
(0 0 0)
(0 0 0)
(0 0 0)
(0 0 0)
(0 0 0)
(0 0 0)
(0 0 0)
(0 0 0)
(0 0 0)
(0 0 0)
(0 0 0)
(0 0 0)
(0 0 0)
(0 0 0)
(0 0 0)
(0 0 0)
(0 0 0)
(0 0 0)
(0 0 0)
(0 0 0)
(0 0 0)
(0 0 0)
(0 0 0)
(0 0 0)
(0 0 0)
(0 0 0)
(0 0 0)
(0 0 0)
(0 0 0)
(0 0 0)
(0 0 0)
(0 0 0)
(-0.070987980109 0.00131591671067 0)
(-0.0091728305737 0.000169893956349 0)
(-0.0156421959173 0.000289715865677 0)
(-0.000428150903364 6.16026026069e-06 0)
(-0.000860124938503 1.23755279651e-05 0)
(-9.36875838338e-05 1.34798244048e-06 0)
(-0.000180834926413 2.60186350695e-06 0)
(-0.0462635843638 0.000857596224973 0)
(-0.0161896789718 0.000299856035761 0)
(-0.0099746592914 0.0001847449723 0)
(-0.000856522556187 1.23236966775e-05 0)
(-0.00049308614722 7.09455235046e-06 0)
(-0.000163594330977 2.35380481059e-06 0)
(-9.49905458913e-05 1.36672953484e-06 0)
(-0.00382601516864 7.08632792057e-05 0)
(-0.00369571249031 6.84498870291e-05 0)
(-0.00078346519837 1.2214784803e-05 0)
(-0.000173034310249 2.48962778494e-06 0)
(-3.85053665683e-05 4.98599257689e-07 0)
(-3.22034921034e-05 4.16997387345e-07 0)
(-4.16616474979e-06 2.32487499195e-08 0)
(0 0 0)
(0 0 0)
(0 0 0)
(0 0 0)
(0 0 0)
(0 0 0)
(0 0 0)
(0 0 0)
(0 0 0)
(0 0 0)
(0 0 0)
(0 0 0)
(0 0 0)
(0 0 0)
(0 0 0)
(0 0 0)
(0 0 0)
(0 0 0)
(0 0 0)
(0 0 0)
(0 0 0)
(0 0 0)
(0 0 0)
(0 0 0)
(0 0 0)
(0 0 0)
(0 0 0)
(0 0 0)
(0 0 0)
(0 0 0)
(0 0 0)
(0 0 0)
(0 0 0)
(0 0 0)
(0 0 0)
(0 0 0)
(0 0 0)
(0 0 0)
(0 0 0)
(0 0 0)
(0 0 0)
(0 0 0)
(0 0 0)
(0 0 0)
(0 0 0)
(0 0 0)
(0 0 0)
(0 0 0)
(0 0 0)
(-0.00212160200742 3.92951069947e-05 0)
(0 0 0)
(0 0 0)
(-1.05619388238e-05 1.01992419425e-07 0)
(-2.0683419145e-05 1.99731507232e-07 0)
(0 0 0)
(0 0 0)
(-0.00125620550699 1.95851455408e-05 0)
(0 0 0)
(0 0 0)
(-1.77120183141e-05 1.71037877693e-07 0)
(-1.04576662405e-05 1.00985500787e-07 0)
(0 0 0)
(0 0 0)
(0 0 0)
(0 0 0)
(0 0 0)
(0 0 0)
(0 0 0)
(0 0 0)
(0 0 0)
(0 0 0)
(0 0 0)
(0 0 0)
(0 0 0)
(0 0 0)
(0 0 0)
(0 0 0)
(0 0 0)
(0 0 0)
(0 0 0)
(0 0 0)
(0 0 0)
(0 0 0)
(0 0 0)
(0 0 0)
(0 0 0)
(0 0 0)
(0 0 0)
(0 0 0)
(0 0 0)
(0 0 0)
(0 0 0)
(0 0 0)
(0 0 0)
(0 0 0)
(0 0 0)
(0 0 0)
(0 0 0)
(0 0 0)
(0 0 0)
(0 0 0)
(0 0 0)
(0 0 0)
(0 0 0)
(0 0 0)
(0 0 0)
(0 0 0)
(0 0 0)
(0 0 0)
(0 0 0)
(0 0 0)
(0 0 0)
(0 0 0)
(0 0 0)
(0 0 0)
(0 0 0)
(0 0 0)
(0 0 0)
(0 0 0)
(0 0 0)
(0 0 0)
(0 0 0)
(0 0 0)
(0 0 0)
(0 0 0)
(0 0 0)
(0 0 0)
(0 0 0)
(0 0 0)
(0 0 0)
(0 0 0)
(0 0 0)
(0 0 0)
(0 0 0)
(0 0 0)
(0 0 0)
(0 0 0)
(0 0 0)
(0 0 0)
(0 0 0)
(0 0 0)
(0 0 0)
(0 0 0)
(0 0 0)
(0 0 0)
(0 0 0)
(0 0 0)
(0 0 0)
(0 0 0)
(0 0 0)
(0 0 0)
(0 0 0)
(0 0 0)
(0 0 0)
(0 0 0)
(0 0 0)
(0 0 0)
(0 0 0)
(0 0 0)
(0 0 0)
(0 0 0)
(0 0 0)
(0 0 0)
(0 0 0)
(0 0 0)
(0 0 0)
(0 0 0)
(0 0 0)
(0 0 0)
(0 0 0)
(0 0 0)
(0 0 0)
(0 0 0)
(0 0 0)
(0 0 0)
(0 0 0)
(0 0 0)
(0 0 0)
(0 0 0)
(0 0 0)
(0 0 0)
(0 0 0)
(0 0 0)
(0 0 0)
(0 0 0)
(0 0 0)
(0 0 0)
(0 0 0)
(0 0 0)
(0 0 0)
(0 0 0)
(0 0 0)
(0 0 0)
(0 0 0)
(0 0 0)
(0 0 0)
(0 0 0)
(0 0 0)
(0 0 0)
(0 0 0)
(0 0 0)
(0 0 0)
(0 0 0)
(0 0 0)
(0 0 0)
(0 0 0)
(0 0 0)
(0 0 0)
(0 0 0)
(0 0 0)
(0 0 0)
(0 0 0)
(0 0 0)
(0 0 0)
(0 0 0)
(0 0 0)
(0 0 0)
(0 0 0)
(0 0 0)
(0 0 0)
(0 0 0)
(0 0 0)
(0 0 0)
(0 0 0)
(0 0 0)
(0 0 0)
(0 0 0)
(0 0 0)
(0 0 0)
(0 0 0)
(0 0 0)
(0 0 0)
(0 0 0)
(0 0 0)
(0 0 0)
(0 0 0)
(0 0 0)
(0 0 0)
(0 0 0)
(0 0 0)
(0 0 0)
(0 0 0)
(0 0 0)
(0 0 0)
(0 0 0)
(-7.06501995616 0.181643476695 0)
(-5.48955905132 0.140716625288 0)
(-5.69955041194 0.128672491597 0)
(-3.48180541408 0.0786048978434 0)
(-4.84498018962 0.124193811469 0)
(-5.04624668457 0.113923570665 0)
(-8.01325641852 0.206301769258 0)
(-5.48959546101 0.140717558596 0)
(-2.59321618301 0.0664732133316 0)
(-2.7140580483 0.0612723085457 0)
(-2.71782886855 0.0613574382142 0)
(-3.77330993788 0.0967231494662 0)
(-3.77291356507 0.0967129890427 0)
(-3.93625556352 0.0888645198852 0)
(-1.57269900259 0.0403137837064 0)
(-3.32960994048 0.0853495645041 0)
(-1.28000342383 0.0288972318679 0)
(-2.11562241213 0.0477620842648 0)
(-2.93862370376 0.0753272178546 0)
(-1.13137054819 0.0255417106319 0)
(-1.7818980567 0.0456762881686 0)
(-0.742604323524 0.0190355497324 0)
(-0.350472176273 0.00898382938256 0)
(-0.60361388396 0.0136271278957 0)
(-0.221740819286 0.00500599900764 0)
(-0.309358269356 0.00792993594963 0)
(-0.533419187187 0.0120424192998 0)
(-0.841319947691 0.0215659769245 0)
(-1.2248656452 0.0313975964941 0)
(-1.57286570646 0.0403180569105 0)
(-1.65046941768 0.0372608358428 0)
(-0.608758910499 0.0137432815107 0)
(-2.28862123748 0.0586653780551 0)
(-0.84180050708 0.0215782953448 0)
(-0.883699200159 0.0199503065484 0)
(-0.578419553102 0.0148269190207 0)
(-0.165674991901 0.00424683030768 0)
(-0.173366186239 0.00391389803224 0)
(-0.287612230334 0.00649310552866 0)
(-0.241020348784 0.0061781956965 0)
(-0.397540066256 0.0101903442549 0)
(-0.41689645261 0.00941181346212 0)
(-0.0358254171604 0.000923204061864 0)
(-0.128861283411 0.0033031660216 0)
(-0.029272630857 0.000661497903105 0)
(-0.0800540537979 0.00180904780923 0)
(-0.113750774494 0.00291583075454 0)
(-0.025938622389 0.000586156550247 0)
(-0.0405805771498 0.00104574228654 0)
(-0.008964725967 0.000175577744768 0)
(0 0 0)
(-0.00761398563171 0.000136393117082 0)
(0 0 0)
(0 0 0)
(-0.00521062240455 5.84506834267e-05 0)
(-0.0101546439919 0.000198882765361 0)
(-0.0279223761529 0.000719546431682 0)
(-0.0609428370138 0.00156217836075 0)
(-0.0626397813652 0.00141552306065 0)
(-0.01273589909 0.000228144504041 0)
(-0.0886565385246 0.00227257759581 0)
(-0.0191933237722 0.000494602878953 0)
(-0.0203147394182 0.000459069005207 0)
(-0.00507747882284 5.92521664182e-05 0)
(0 0 0)
(0 0 0)
(0 0 0)
(0 0 0)
(0 0 0)
(-0.00407648718226 4.5728406951e-05 0)
(0 0 0)
(0 0 0)
(0 0 0)
(0 0 0)
(0 0 0)
(0 0 0)
(0 0 0)
(0 0 0)
(0 0 0)
(0 0 0)
(0 0 0)
(0 0 0)
(0 0 0)
(0 0 0)
(0 0 0)
(0 0 0)
(0 0 0)
(0 0 0)
(0 0 0)
(0 0 0)
(0 0 0)
(0 0 0)
(0 0 0)
(0 0 0)
(0 0 0)
(0 0 0)
(0 0 0)
(0 0 0)
(0 0 0)
(0 0 0)
(0 0 0)
(0 0 0)
(0 0 0)
(0 0 0)
(0 0 0)
(0 0 0)
(0 0 0)
(0 0 0)
(0 0 0)
(0 0 0)
(0 0 0)
(0 0 0)
(0 0 0)
(0 0 0)
(0 0 0)
(0 0 0)
(0 0 0)
(0 0 0)
(0 0 0)
(0 0 0)
(0 0 0)
(0 0 0)
(0 0 0)
(0 0 0)
(0 0 0)
(0 0 0)
(0 0 0)
(0 0 0)
(0 0 0)
(0 0 0)
(0 0 0)
(0 0 0)
(0 0 0)
(0 0 0)
(0 0 0)
(0 0 0)
(0 0 0)
(0 0 0)
(0 0 0)
(0 0 0)
(0 0 0)
(0 0 0)
(0 0 0)
(0 0 0)
(0 0 0)
(0 0 0)
(0 0 0)
(0 0 0)
(0 0 0)
(0 0 0)
(0 0 0)
(0 0 0)
(0 0 0)
(0 0 0)
(0 0 0)
(0 0 0)
(0 0 0)
(0 0 0)
(0 0 0)
(0 0 0)
(0 0 0)
(0 0 0)
(0 0 0)
(0 0 0)
(0 0 0)
(0 0 0)
(0 0 0)
(0 0 0)
(0 0 0)
(0 0 0)
(0 0 0)
(0 0 0)
(0 0 0)
(0 0 0)
(0 0 0)
(0 0 0)
(0 0 0)
(0 0 0)
(0 0 0)
(0 0 0)
(0 0 0)
(0 0 0)
(0 0 0)
(0 0 0)
(0 0 0)
(0 0 0)
(0 0 0)
(0 0 0)
(0 0 0)
(0 0 0)
(0 0 0)
(0 0 0)
(0 0 0)
(0 0 0)
(0 0 0)
(0 0 0)
(0 0 0)
(0 0 0)
(0 0 0)
(0 0 0)
(0 0 0)
(0 0 0)
(0 0 0)
(0 0 0)
(0 0 0)
(0 0 0)
(0 0 0)
(0 0 0)
(0 0 0)
(0 0 0)
(0 0 0)
(0 0 0)
(0 0 0)
(0 0 0)
(0 0 0)
(0 0 0)
(0 0 0)
(0 0 0)
(0 0 0)
(0 0 0)
(0 0 0)
(0 0 0)
(0 0 0)
(0 0 0)
(0 0 0)
(0 0 0)
(0 0 0)
(0 0 0)
(0 0 0)
(0 0 0)
(0 0 0)
(0 0 0)
(0 0 0)
(0 0 0)
(0 0 0)
(0 0 0)
(0 0 0)
(0 0 0)
(-2.42492818209 -0.134730913419 0.217592648934)
(-6.19639486502 -0.615061953236 0.85831100932)
(-1.96783357165 0.00654661828065 0.0425390782894)
(-0.809751081734 -0.00793070714025 0.0293377942917)
(-5.07894164185 -0.335830931848 0.516682636363)
(-1.01410331503 0.00919594094177 0.0152930336875)
(-2.83231764136 -0.25459494374 0.361695501526)
(-1.97754183789 -0.014389848701 0.07167682163)
(-3.51031401891 0.0612660285901 0.0315900845179)
(-2.24282306167 0.0428266295891 0.00868457504377)
(-1.31578546832 0.029705043798 0)
(-3.95026918828 -0.0669676416992 0.186408560741)
(-1.83793176707 0.0386995981422 0.00917030192086)
(-1.17851507531 0.0260519244793 0.000599087104747)
(-0.863740828729 -0.0228865779544 0.0494102374896)
(-0.225599772969 -0.00328396815249 0.00987105969891)
(-0.324381854888 0.00408132950186 0.00358025189918)
(-0.181192841172 0.00409059182707 0)
(-0.264970395455 0.00332426533313 0.00374992176242)
(-0.439803418446 0.00943857485808 0.000530182385567)
(-0.900184700792 -0.0571846367137 0.0882495395308)
(-0.816808795461 0.0097389195586 0.0121994893576)
(-0.351010989796 0.00899764106031 0)
(-0.623005381913 0.0140649084533 0)
(-0.231092574153 0.00521712330914 0)
(-0.842042925585 0.0215845093801 0)
(-0.309863370191 0.00794288345311 0)
(-0.555009561622 0.0125298414773 0)
(-1.57266469991 0.0403129044085 0)
(-3.33007597752 0.0853615106658 0)
(-2.12486160323 0.0479706673376 0)
(-1.30404125717 0.0294399076379 0)
(-2.93820405155 0.0753164606985 0)
(-1.78239036328 0.0456889077103 0)
(-1.14395137213 0.0258257340806 0)
(-1.22466608693 0.0313924811168 0)
(-1.57247247725 0.0403079770686 0)
(-1.6554234999 0.0373726787175 0)
(-0.611423690763 0.0138034413288 0)
(-2.28797085107 0.0586487063733 0)
(-0.841670814152 0.0215749708608 0)
(-0.889088710402 0.0200719796035 0)
(-0.742737212319 0.0190389561377 0)
(-0.350907179795 0.00899498004638 0)
(-0.618210916656 0.0139566690754 0)
(-0.226984391729 0.0051243773853 0)
(-0.841778101855 0.0215777210204 0)
(-0.30960998703 0.00793638835526 0)
(-0.542541659558 0.0122483673421 0)
(-0.578393864138 0.0148262605225 0)
(-0.165688273014 0.00424717074913 0)
(-0.290031382921 0.00654772008041 0)
(-0.176554378116 0.00398587433964 0)
(-0.397505750233 0.010189464615 0)
(-0.241089412232 0.00617996603457 0)
(-0.421759920751 0.00952161064229 0)
(-0.273232212193 0.00700389857553 0)
(-0.953711894715 0.0244469761718 0)
(-0.371174315964 0.00837959498555 0)
(-0.371421724612 0.00838518045892 0)
(-0.510444224981 0.013084473282 0)
(-0.51048743504 0.0130855809072 0)
(-0.199227549362 0.00449774163193 0)
(-0.129057986512 0.00330820821102 0)
(-0.100497520244 0.00257610342951 0)
(-0.175532927897 0.00396281417959 0)
(-0.0386520612503 0.000873452666167 0)
(-0.24110028809 0.0061802448209 0)
(-0.0521859202148 0.00134480649029 0)
(-0.0927491936312 0.00209593040685 0)
(-0.129047711901 0.00330794483675 0)
(-0.1004928378 0.00257598340205 0)
(-0.176126251523 0.00397620899564 0)
(-0.0388379278274 0.000877652847272 0)
(-0.241093332806 0.00618006653262 0)
(-0.0521810885921 0.00134468198165 0)
(-0.0929318525317 0.00210005810143 0)
(-0.0609584273684 0.00156257799615 0)
(-0.00897418592988 0.000175763021926 0)
(-0.0183091214981 0.00041374639464 0)
(-0.0183410700208 0.000414468361888 0)
(-0.0246522699388 0.000635277340659 0)
(-0.024649139194 0.000635196662847 0)
(-0.0439227131382 0.000992557955641 0)
(0 0 0)
(-0.0358632472873 0.00092417892635 0)
(-0.00775834656816 0.000138979126441 0)
(-0.0128755365096 0.00023064589869 0)
(-0.0101678540981 0.000199141490576 0)
(-0.0191969107299 0.000494695313157 0)
(0 0 0)
(0 0 0)
(0 0 0)
(0 0 0)
(0 0 0)
(0 0 0)
(0 0 0)
(0 0 0)
(0 0 0)
(0 0 0)
(-0.0047104790928 5.28402752809e-05 0)
(0 0 0)
(-0.00792071763071 0.000155130423803 0)
(0 0 0)
(0 0 0)
(0 0 0)
(0 0 0)
(0 0 0)
(0 0 0)
(0 0 0)
(0 0 0)
(0 0 0)
(0 0 0)
(0 0 0)
(0 0 0)
(0 0 0)
(0 0 0)
(0 0 0)
(0 0 0)
(0 0 0)
(0 0 0)
(0 0 0)
(0 0 0)
(0 0 0)
(0 0 0)
(0 0 0)
(0 0 0)
(0 0 0)
(0 0 0)
(0 0 0)
(0 0 0)
(0 0 0)
(0 0 0)
(0 0 0)
(0 0 0)
(0 0 0)
(0 0 0)
(0 0 0)
(0 0 0)
(0 0 0)
(0 0 0)
(0 0 0)
(0 0 0)
(0 0 0)
(0 0 0)
(0 0 0)
(0 0 0)
(0 0 0)
(0 0 0)
(0 0 0)
(0 0 0)
(0 0 0)
(0 0 0)
(0 0 0)
(0 0 0)
(0 0 0)
(0 0 0)
(0 0 0)
(0 0 0)
(0 0 0)
(0 0 0)
(0 0 0)
(0 0 0)
(0 0 0)
(0 0 0)
(0 0 0)
(0 0 0)
(0 0 0)
(0 0 0)
(0 0 0)
(0 0 0)
(0 0 0)
(0 0 0)
(0 0 0)
(0 0 0)
(0 0 0)
(0 0 0)
(0 0 0)
(0 0 0)
(0 0 0)
(0 0 0)
(0 0 0)
(0 0 0)
(0 0 0)
(0 0 0)
(0 0 0)
(0 0 0)
(0 0 0)
(0 0 0)
(0 0 0)
(0 0 0)
(0 0 0)
(0 0 0)
(0 0 0)
(0 0 0)
(0 0 0)
(0 0 0)
(0 0 0)
(0 0 0)
(0 0 0)
(0 0 0)
(0 0 0)
(0 0 0)
(0 0 0)
(0 0 0)
(0 0 0)
(0 0 0)
(0 0 0)
(0 0 0)
(0 0 0)
(0 0 0)
(0 0 0)
(0 0 0)
(0 0 0)
(0 0 0)
(0 0 0)
(0 0 0)
(0 0 0)
(0 0 0)
(0 0 0)
(0 0 0)
(0 0 0)
(0 0 0)
(0 0 0)
(0 0 0)
(0 0 0)
(0 0 0)
(0 0 0)
(0 0 0)
(0 0 0)
(0 0 0)
(0 0 0)
(0 0 0)
(0 0 0)
(0 0 0)
(0 0 0)
(0 0 0)
(0 0 0)
(0 0 0)
(0 0 0)
(0 0 0)
(0 0 0)
(0 0 0)
(0 0 0)
(0 0 0)
(0 0 0)
(0 0 0)
(0 0 0)
(0 0 0)
(0 0 0)
(0 0 0)
(0 0 0)
(0 0 0)
(0 0 0)
(0 0 0)
(0 0 0)
(0 0 0)
(0 0 0)
(0 0 0)
(0 0 0)
(0 0 0)
(0 0 0)
(0 0 0)
(0 0 0)
(0 0 0)
(0 0 0)
(0 0 0)
(0 0 0)
(0 0 0)
(0 0 0)
(0 0 0)
(0 0 0)
(0 0 0)
(0 0 0)
(0 0 0)
(0 0 0)
(0 0 0)
(0 0 0)
(0 0 0)
(0 0 0)
(-0.0279669065509 0.000720693958984 0)
(-0.0610463589548 0.00156483199068 0)
(-0.0654612826183 0.00147928286317 0)
(-0.0132528040091 0.000237404079324 0)
(-0.0888041157262 0.00227636051636 0)
(-0.0211879383689 0.000478801405676 0)
(-0.0192248093864 0.000495414248343 0)
(-0.0359019066736 0.000925175160455 0)
(-0.129135182864 0.00331018702388 0)
(-0.0836673304008 0.00189070001562 0)
(-0.0306284116633 0.000692135605771 0)
(-0.113997133244 0.00292214579214 0)
(-0.0406710476983 0.0010480736698 0)
(-0.02712064716 0.000612867743759 0)
(-0.00508587188651 5.93501101462e-05 0)
(0 0 0)
(0 0 0)
(0 0 0)
(0 0 0)
(-0.00424790839055 4.76513416794e-05 0)
(0 0 0)
(-0.00898447826918 0.000175964601509 0)
(0 0 0)
(-0.00796375617785 0.000142658731092 0)
(0 0 0)
(-0.0101784229168 0.000199348485119 0)
(0 0 0)
(-0.00544215923906 6.10479712678e-05 0)
(-0.03587305998 0.000924431794799 0)
(-0.129094005697 0.00330913150888 0)
(-0.0824718402663 0.00186368453413 0)
(-0.0305078607406 0.000689411416649 0)