/*--------------------------------*- C++ -*----------------------------------*\
| =========                 |                                                 |
| \\      /  F ield         | OpenFOAM: The Open Source CFD Toolbox           |
|  \\    /   O peration     | Version:  v1906                                 |
|   \\  /    A nd           | Web:      www.OpenFOAM.com                      |
|    \\/     M anipulation  |                                                 |
\*---------------------------------------------------------------------------*/
FoamFile
{
    version     2.0;
    format      ascii;
    class       volScalarField;
    location    "13";
    object      p;
}
// * * * * * * * * * * * * * * * * * * * * * * * * * * * * * * * * * * * * * //

dimensions      [1 -1 -2 0 0 0 0];


internalField   nonuniform List<scalar> 
28582
(
17091.8241912
17091.3289448
12193.9373576
12193.5433624
7296.01465371
7295.8877434
3622.36164496
3623.13655266
55.3881259757
54.4260292071
-27.0896718458
3622.92928329
654.073414706
654.883981727
3622.96793854
3624.61674765
654.591473305
1789.09838814
1790.2157257
17091.3321089
17091.1652374
17091.5359737
12193.0641085
12193.2986666
12193.5601387
7294.42939869
7295.37937927
3619.48176033
3622.53504565
54.9248123517
-27.0967779974
-27.055393955
3619.65399044
3620.55592869
644.47041381
648.217907607
1784.81178866
3621.87066109
3623.77083945
3622.46055536
1788.5625695
654.696346655
1789.31483793
1787.52373324
55.4206344033
54.6074282433
-22.9634104555
-22.945236337
54.7787144501
-22.9862660846
1787.44280677
1788.59025804
654.741282139
654.89759937
1788.01541775
655.447491227
1788.01978509
1789.07160064
1788.68656053
654.994826261
655.691068152
1789.42726033
655.689244799
1788.45473241
1789.58490803
1788.74549658
654.27799646
655.550758335
1789.6162188
655.309894458
1788.58291958
1788.10890187
653.831795499
654.731096935
1789.45747655
653.920409247
654.99065997
1788.3755577
1791.19748869
655.735274333
656.503710136
1790.72546696
657.033417826
1791.71594267
656.273904922
53.3262041141
-22.9495576076
49.7766548854
51.3969356774
-23.0194994518
-22.9886780694
54.6575210138
-22.9555923609
-22.9325855524
54.9962919612
-22.9670266444
55.4185630627
-22.9431872845
1782.86772981
1782.22221713
645.662465906
645.163667337
1782.6237826
1782.31249408
646.54872943
1783.65890125
1783.83458459
646.96885676
649.331985147
1783.2247994
1784.52142335
647.971807179
650.47310258
651.854154539
1785.87732113
1784.19329112
650.668300927
1785.26141797
649.301980182
1787.76503001
654.042260618
654.629155573
1787.90851426
654.312595276
1787.43633972
654.548400684
1787.26900921
1786.73593315
654.526062319
654.443006571
1787.13300129
1786.60370787
654.445375871
1788.9056177
1790.24047512
655.136124918
655.836611554
655.188740496
1788.25944243
654.692820885
654.527728078
654.237886445
1786.27357253
1787.23167094
654.205440008
1786.30431153
654.289933852
7294.34487791
3621.23487969
56.0651478217
-27.0532921126
3621.19652925
653.132826479
3621.49258001
3621.15438728
654.761970476
654.020863685
654.854902358
3621.14228403
3621.58434706
655.889459201
659.282080821
54.3874554675
56.1635402901
57.6238812522
-22.9508809163
-22.9561003746
-22.9801387621
58.9935911105
60.0036302512
1786.60529265
1786.723491
652.010275955
653.876454237
1786.03484189
652.77454858
1787.35073188
1785.47749619
1786.23008557
654.868361831
654.457590938
1785.74638235
1785.99478176
654.594943591
1784.93702848
1785.2186068
654.21576825
654.041959621
1785.56233504
654.34188532
1784.23951807
1784.53950072
1783.92934842
655.109365599
654.275742363
1784.51533597
654.605009671
1783.74842015
1785.39000087
1784.3670167
655.861806553
657.03983029
1784.80536856
656.723242973
1785.04148567
1786.00712181
1786.63896695
658.664255644
658.207855411
1786.71550861
657.712970103
1785.76726706
3643.93724993
3637.64078146
3635.26789318
3630.45325162
35.0520939093
36.7741445098
35.9062929313
38.6037297254
40.7161363647
-27.1144348245
-27.1533103748
-27.0687326132
-27.1267862293
-27.0725674825
-27.0918902511
3644.61341684
3644.1106836
647.954999203
645.204617939
3646.54238718
645.666321167
3642.5531367
3640.52253972
644.191576001
642.220800722
3645.50384557
3640.78753347
3640.86604173
644.673590583
647.432795744
642.616156367
644.803502477
3640.05388932
3636.65502647
648.597558809
650.77056123
645.506721102
646.456643825
3636.8337923
3633.71648685
642.277460312
644.015327251
642.267200243
3632.54150792
3632.14905348
3630.01719401
644.530850215
645.09063527
642.659242052
643.417771891
642.32403825
643.276079772
37.6909733714
36.2645857013
36.381040134
-23.0797547957
-23.0655468056
-23.0896566768
-23.0863484839
-23.0445435116
-23.0200429974
-23.0754479304
-23.0286700694
34.7345543388
34.1155863867
35.8140117533
34.6575768055
35.7013543068
-23.1042460589
-23.1018655397
-23.1370012671
-23.1345212038
38.3848380983
37.1155284511
39.1708435398
-23.1008535263
-23.0200380404
-23.1241761305
-23.0795865134
37.1654526471
38.7511508415
-23.1540590505
-23.1459859071
-23.1523148274
40.2820120095
40.1166130202
41.5411217629
-23.1349109932
-23.0831357687
-23.1421076522
-23.0919495727
1808.13908298
1809.37508359
647.621118792
647.044619707
1809.10723645
646.78967418
1808.36546844
1807.7969179
1808.15056864
646.146622325
645.007430101
1808.71021061
1807.34584448
645.967650546
1811.14469755
1809.03376082
646.687237413
646.48747723
1809.76750047
1810.24914289
647.59034809
1806.19810655
1807.3689624
643.96472159
643.29908189
1806.78523034
1806.61085383
643.10232432
1805.41719211
1804.48116642
642.728807767
642.076096707
1805.65428075
1804.4431031
642.539219148
1807.78861412
1808.07546216
645.403723897
643.820432783
1809.04015764
1807.04625328
644.533973209
1808.64542898
1811.30643698
646.370794889
646.456013259
1810.20057954
1809.39496502
645.452875455
1806.47696247
1804.59988301
643.221973798
643.227269951
1805.9919447
1804.78693887
643.914543682
1806.97033143
1804.97648648
645.745979054
644.047070199
1807.33968112
1804.96224455
644.882492473
1809.67582341
1812.09151945
649.896109625
647.477774909
1812.09507409
1809.84089017
648.398379242
1808.41000884
1807.29351964
650.935378716
649.473134279
1810.72668176
649.307755765
1805.41007582
1806.82900077
1804.7030401
646.507472101
646.122947109
1807.39038262
1803.88143981
647.278544888
1805.44020219
1800.11978491
648.012070651
646.511146048
1802.40785654
647.959020001
1802.79012875
1800.70725722
1802.86061384
642.793512268
641.845324121
1802.78649821
1801.01430899
642.288882074
1800.38733657
1802.41278608
643.46285726
643.287383728
1802.68019269
1799.89995547
642.855608595
1798.38749999
1796.1733041
642.747976644
641.891853277
1797.8177685
1796.74589767
642.386026931
1798.21797936
1801.88295771
644.898940092
643.652519835
1800.91205417
1799.2021692
643.883494797
1796.94717966
1797.60861962
645.094342665
644.133140592
1799.4815936
644.059955339
1795.44169318
1796.21113924
1795.5171148
643.084101284
642.970032048
1797.11749308
1794.71341114
643.344550771
1795.11162129
1792.72793135
643.622662556
643.234228806
1793.76001475
643.548483757
1793.86118741
1793.33369854
1794.57848714
642.722944191
642.088785967
1793.80526637
1794.06547554
642.567663874
1792.04087892
643.014994939
1792.92063616
17090.083615
17089.4155239
17089.3990854
17092.569719
17094.0900288
17105.3795939
12192.1034432
12191.5513061
12191.546175
12194.3497786
12195.6197151
12207.6398576
18303.1644253
18306.4972067
17079.1111295
17084.5229208
17088.9479533
17092.3921124
17098.1320401
17078.2548364
18305.5055847
18307.518851
17084.8493979
17086.2027105
17087.4447353
17087.9242324
17088.3311142
17102.2459051
17086.5800421
17085.1979646
17085.3504603
17086.329153
17087.5735788
17088.3398394
17088.6820458
17102.8537566
17089.5326937
17087.9352875
17087.4835496
17087.97175
17088.9305549
17089.7870563
17090.9209028
17104.7702236
17090.0250299
17090.9791997
17092.5611997
17105.163548
13403.1489009
13405.8790542
12184.1648818
12187.7161748
12193.0047486
12200.0240363
12258.2831724
12082.8752524
13407.5270886
13408.9979961
12189.2094476
12190.2890889
12189.8910839
12189.0589913
12188.0253799
12192.0451303
12187.6881682
12187.5890147
12188.428783
12188.9878378
12189.148236
12189.0406621
12188.7037449
12199.1271064
12191.1916128
12189.9743784
12189.8674112
12190.4667978
12190.9913866
12191.069132
12191.0287459
12205.2477476
12192.0453908
12192.7011552
12193.7165675
12207.3167879
8502.56922732
8506.06720687
7285.21120629
7287.67066156
7289.94670421
7287.72893061
7280.77057434
7217.63492201
8507.66980349
8510.58711193
7285.48985253
7287.86245953
7287.47442091
7283.17511734
7271.69870327
7263.47915631
7288.84208641
7288.32682432
7288.9650937
7289.20366
7288.00831583
7284.67396467
7277.74323995
7295.80782178
7295.02269073
7292.52580122
7291.24540286
7291.17731948
7291.14826255
7290.42201864
7288.86106351
7284.8141381
7302.30291566
7293.85626061
7293.49739458
7293.21623043
7292.57989089
7291.83738675
7290.17940766
7306.1568536
7293.91642442
7293.28688251
7307.35751465
3605.50418059
3607.87189119
3611.37140499
3614.45322178
3617.481674
3619.64218411
3616.40521419
3589.6385305
3610.24951199
3609.58609854
3611.95906942
3612.73549415
3614.77244064
3615.16591424
3613.45600923
3609.25995095
3597.45504082
3628.35593927
3619.02708922
3614.81111326
3614.53680985
3615.70663697
3616.3512755
3614.41147189
3612.08920023
3610.20265232
3612.28349293
3621.62349543
3618.13764687
3617.30678298
3617.83340684
3618.39373671
3617.4807933
3615.97865719
3615.38660042
3620.6316237
3620.02401116
3620.26509403
3620.19197768
3619.65047116
3619.22637695
3620.18376857
3625.73662875
3621.054026
3622.6544024
3627.76470647
55.0814566672
56.4790183074
54.8941846153
51.6307879041
50.8482134613
53.9735939591
60.0653624172
65.4531358592
41.328153701
47.5749532549
50.1207031077
51.0448413337
53.3337151823
52.7944787444
53.2350699174
55.9147579719
59.7738982597
60.9951701732
42.3348746087
45.4348989508
46.5447408144
48.9027022938
52.5274053042
55.2005092649
57.1551765181
58.2634203423
59.4443580116
59.1425080128
45.8504597284
47.6205361823
50.3349885257
52.6063717311
55.0398922508
56.8556832917
57.5480903215
58.6264244625
57.6903066967
52.7461781461
53.4238102629
55.4241282124
56.334601396
57.4873875802
58.2411346907
56.6502756612
58.039706809
59.200742138
57.7462075721
-27.0204708877
-27.5255785292
-27.5005826876
-27.5498648872
-27.3637910008
-27.0822477909
-27.0999255743
-27.0439059065
-27.1488894328
-27.4650678316
-27.2608686644
-27.3858777781
-27.315136777
-27.4809387795
-27.0902719881
-27.3681011664
-27.0650046098
-27.1182580799
-27.1477322663
-27.3901620539
-27.322304901
-27.1295274004
-27.1720991019
-27.1365378909
-27.100263077
-27.0923981193
-27.2932923616
-27.0869057107
-27.1900533699
-27.4070058486
-27.1154608729
-27.124300366
-27.0733386786
-27.0259825011
-27.0538352175
-27.0064491727
-27.0815209335
-27.1698882479
-27.4077268017
-27.0662158483
-27.0200189404
-27.2003011304
-27.0682578984
-27.1295548279
-27.1768847999
-27.4378902772
-27.0953915357
-27.1908559953
-27.4901137468
18305.0187525
18303.5411186
18305.3937817
15853.3793047
15855.3489179
15854.2412741
15855.6916068
18307.3660701
18307.0859849
18308.2335149
15856.7418972
15853.9122516
15856.7903063
15856.3615066
18306.3147564
18308.0549363
18307.765118
15856.1953243
15857.3259039
15858.667002
15858.8939504
18308.5421253
18308.3034228
18309.2493867
15858.4188827
15858.7233318
15859.8113115
15860.8795378
13404.8889816
13404.7185033
13405.8023978
10952.455009
10954.4990893
10954.3600806
10955.9914061
13406.6615152
13406.4519187
13408.2056531
10955.7168393
10956.4301214
10956.8974812
10957.3549279
13408.2049799
13409.3958447
13409.8400351
10957.6260442
10958.7994686
10959.7851314
10960.0120735
13409.5379002
13410.6902963
13414.2728771
10959.7402448
10956.6486482
10960.4906976
10963.6156599
8504.5556102
8504.78895456
8506.61836735
6053.65880964
6055.4514123
6055.80075082
6057.31584948
8506.9816599
8507.71669657
8508.63693353
6056.95958241
6057.95125555
6058.44567531
6060.48503568
8509.30623958
8510.12943316
8510.55060794
6058.29929606
6059.78803228
6060.53642899
6061.24786227
8507.46958608
8511.0744988
8512.9750771
6060.74149035
6060.21738173
6061.82437151
6063.76909775
3603.75887229
3606.22950829
643.315180521
642.008893474
3606.65656313
3607.81639886
3608.75685208
646.01376144
646.796157228
644.116052234
645.469879286
3609.41520394
3609.80817952
3610.71700222
645.440731925
643.758442811
644.275939
643.277206227
3612.91089835
3611.93743095
3613.07937877
644.444617087
646.093629356
644.207143983
646.591071934
3616.09931441
3614.46504271
3615.58642031
646.110592688
646.410644799
646.581346075
646.287546539
3618.66607633
3616.34370502
3616.75343189
647.347491892
651.120935316
646.602246269
648.930871772
3619.61659348
3616.94974044
3616.45277914
652.766861199
655.997693646
649.690584768
651.814222028
3606.30831112
3614.97821963
3606.72060731
656.28740386
658.177813743
652.151803914
653.133393521
3577.82284315
3593.47357473
3597.76303552
664.136079883
551.530797302
654.552340334
625.157154012
3629.60045003
3621.59734512
649.500741911
640.543819266
646.07625812
642.420569267
3608.6166632
3615.50934518
3612.60143076
638.479197361
641.398127816
641.157079894
640.891382085
3611.08742759
3612.20021028
3612.7830939
643.145747452
645.211752133
641.685731967
643.58161291
3612.05289303
3613.39459835
3613.83341971
644.524953668
643.71996847
643.634573573
644.453571882
3613.71873936
3615.12139003
3616.03149127
644.654203058
647.124860689
645.555218688
649.149857314
3615.37793863
3616.18895253
3615.69358282
647.674705508
646.884812953
649.860133434
649.859139908
3614.48913468
3614.76713588
3613.45498771
646.839871516
648.796628053
649.596635888
648.955538741
3611.84958207
3612.20329366
3610.83055682
649.368197444
651.050323387
648.852457173
650.209647189
3604.36838594
3609.65881736
3607.99950369
651.384374905
652.2871006
650.718966864
652.090764762
3616.75495505
3606.0222287
3628.06111896
653.669751776
628.693059791
653.391025684
627.740259427
3623.39760138
3627.20054578
3623.97544382
644.982706382
642.889992583
643.492426111
643.755919984
3616.08194747
3620.86995768
3618.25276259
641.887009761
641.254806632
643.42417263
642.710313482
3614.51138719
3616.74736193
3616.03552036
641.817665098
643.277281205
642.866897925
643.972501045
3614.9570879
3615.79892842
3616.07527769
643.520893184
644.988945223
644.587728058
647.171784417
3616.33741424
3616.70908039
3617.24739995
646.040477415
649.663724097
648.286029938
650.741067881
3615.62588646
3617.39075528
3616.92404959
650.376188632
651.05124187
651.309914222
653.164874043
3613.2336451
3615.95745544
3615.01457331
650.742527054
649.250554234
653.207396382
652.013120572
3611.01999721
3614.10660831
3613.15609538
649.130500804
650.577115888
651.896432857
652.479836793
3610.33178821
3612.80145465
3613.89232892
651.183974476
652.301386819
652.867445902
653.75213384
3631.73796439
3617.09965626
3634.58305411
653.730380009
628.295358197
655.103505773
629.59816132
643.482629041
644.01018842
3619.46234201
3619.93544453
643.685730361
642.989640302
643.541167256
3617.53014732
3618.95883448
3618.68389778
643.179618728
644.547859049
643.952562398
647.114866434
3617.43660924
3618.70626774
3618.83142131
645.3419391
647.936454905
648.262016133
649.975227012
3618.21602971
3618.97058764
3619.0714023
648.851150911
650.776847044
650.115715455
651.081649788
3618.12848979
3619.20256767
3619.10316916
651.399792762
653.543208968
651.828497978
654.196788222
3616.70365002
3618.67493451
3618.22559424
653.892872751
652.961668018
654.763761482
654.913954683
3615.40117428
3617.80956672
3617.70702278
652.707267427
652.839450519
654.752590698
655.288578348
3617.00366915
3618.05110193
3619.9349752
653.17646094
654.430410006
655.586862696
656.413732491
3636.591037
3623.61886287
3638.89662467
655.69071471
629.633047846
657.219231282
629.56861786
3620.23754656
3621.63722681
649.423683834
650.924156089
654.019839016
3620.14944254
3621.6895884
3621.52161069
650.734759925
651.185023974
653.650148303
652.997530408
3620.03935747
3621.3917916
3621.09311006
652.062746995
654.694290185
653.409937957
654.950342041
3619.38881304
3620.5854677
3620.26105459
655.043803679
655.237938057
655.021884465
655.559813097
3619.38639652
3620.29461451
3620.6311266
655.356083395
656.226153332
655.974447199
657.601666171
3622.19578376
3621.6262813
3623.76111732
656.463378203
657.277081134
657.988656748
658.789153284
3640.22217489
3626.93709552
3640.45749411
657.90862891
629.760211555
659.275882605
631.385856897
3620.97312823
655.42629746
3621.54180682
655.916454511
657.780737943
3624.76512227
658.306388741
659.169123777
3639.94223755
659.538774221
632.147258933
-22.9124173391
-22.8433885156
-22.9111415519
-22.81805458
53.2978906146
51.7314925946
-22.9068947748
-22.884938059
-22.888591212
-22.881174265
56.2643397467
53.2897715905
53.9481117526
-22.8285608053
-22.7667003618
-22.8374703133
-22.7944801922
55.5811525734
53.7451453766
53.6842355031
-22.7681817358
-22.8467271772
-22.806223865
-22.8591910257
53.3898807361
53.8283639754
52.9609333825
-22.9510838955
-23.0166653801
-22.9035678663
-22.9671367628
50.7279433063
51.892366451
51.3395211144
-23.0765328174
-23.0969534812
-23.0247801594
-23.0735522812
51.9077013902
51.2935188888
52.3720284444
-23.0878914905
-23.0809965533
-23.065440529
-23.0640273286
56.8302735042
54.5680334296
57.2787659213
-23.0790393308
-23.0801160255
-23.0513239583
-23.0572885417
63.1306102741
59.8066808198
62.1098220142
-23.0957917913
-23.1101823203
-23.0797947725
-23.0945602807
73.5564450871
62.8232210419
70.976779278
-23.1375592432
-23.024833133
-23.118221062
-23.0121554484
44.7718205447
41.6467603913
44.1867552106
-22.9943211965
-22.9353475537
-23.0419968132
-22.9942984014
49.3835326999
46.1662095461
47.172113069
-22.9199344198
-22.9206224123
-22.9935942047
-22.9871716358
50.3717671362
47.5331444605
48.0802685799
-22.9116035258
-22.8796070682
-22.974343985
-22.9381842831
52.2104083937
49.2415185739
51.0151578108
-22.8530667604
-22.8923813281
-22.8963431221
-22.9055118388
53.124113681
53.0228961355
53.8218056116
-22.8444343878
-22.7728805428
-22.8300306428
-22.7753694269
52.7254537314
54.1249449619
54.5821885866
-22.9403860037
-23.0145838448
-22.859290167
-22.9075538858
54.248126016
55.4660947411
56.4230900476
-23.0099546179
-23.0382492229
-22.9388813665
-22.9863642198
58.0794404848
57.3665411914
58.5621245499
-23.0116228799
-23.0186536733
-22.9708333301
-22.9823778878
61.613324758
59.6484069396
61.0581641056
-23.0477389284
-23.0700238936
-23.0168849412
-23.0466042552
68.4409265588
59.7507494219
65.7255735125
-23.1039420889
-23.0071785332
-23.0902454627
-23.0167351514
44.155562665
43.0349159552
44.460895311
-23.0703158988
-23.0366853307
-23.0799645986
-23.0549863886
46.0386294193
45.5031849249
46.1998956441
-22.9972148505
-22.9756566591
-23.0138145098
-22.9958898308
47.4817812665
46.9718258953
48.1170618902
-22.9580517736
-22.9142225471
-22.9763726006
-22.9465369556
50.6685221783
49.4397337731
50.831276673
-22.883992376
-22.8613020577
-22.9164707798
-22.8880847278
54.0377060565
52.2727561586
53.8341243765
-22.8147259807
-22.7904858403
-22.8487559012
-22.828567477
56.1499474631
55.4561711363
56.7844998553
-22.8164296155
-22.8156929291
-22.8231221839
-22.8249768324
58.093884651
57.4631551001
57.9260836854
-22.8888955578
-22.9392314486
-22.8823105004
-22.9048467316
58.6424150537
58.0314543405
58.3847127177
-22.9253267311
-22.9678251315
-22.9209701212
-22.964510383
60.6886910883
59.0578776366
60.1717208988
-23.0046011029
-23.0325516606
-23.000095156
-23.0294467261
64.3956019567
58.6038113152
63.5621121809
-23.0915873479
-23.031336514
-23.091619824
-23.0327457557
46.6478208155
47.3456113087
-23.0258203475
-23.0055901263
-23.0340761468
48.9864495184
48.3736104638
49.9267067459
-22.9832262192
-22.9537018773
-23.0101479504
-22.9787452735
51.4938900011
51.3662141705
52.2663003222
-22.9391006125
-22.9237485093
-22.9621495764
-22.9592514673
53.8527501878
52.8854579445
53.693836295
-22.8938078294
-22.8658927442
-22.9306594445
-22.8881833111
56.0425242432
54.5985224064
55.5223926034
-22.866710141
-22.8700790951
-22.878025543
-22.901797169
57.2746467582
56.3714193088
56.9798844361
-22.8724202285
-22.8987618445
-22.9044866606
-22.9416142964
58.0426845786
57.3293127828
57.9779377384
-22.9262657034
-22.9631231743
-22.9520537828
-22.9759484001
59.4902537766
58.357690505
58.886683679
-23.0034927208
-23.0396263531
-23.0176898936
-23.0570507693
62.9638064303
56.9996411611
62.5338108996
-23.1046072082
-23.0310772473
-23.1139620465
-23.031138583
53.3755679065
54.5774116428
-22.9791374731
-22.9969916518
-22.966111461
-22.9964823594
53.9124701561
54.2524873155
54.3003699105
-22.9841023529
-22.908858315
-22.9872513653
-22.9280774581
55.9379769828
55.565176892
56.0411447874
-22.8959343173
-22.9338115778
-22.9084699015
-22.9344506211
56.9329723303
56.4022851506
56.9683205986
-22.9446802553
-22.9781443957
-22.9371219493
-22.967204504
58.1799623856
57.6114392702
58.3243311926
-22.9754959338
-22.991448743
-22.9792876167
-23.0013708358
58.5927326549
58.4727256149
58.804004039
-23.0293402098
-23.0720022514
-23.0374929358
-23.0787545482
62.3405574282
56.8015810751
62.5947661348
-23.1250928854
-23.0360137591
-23.1294993383
-23.0375940324
57.0214244746
-22.9726432419
58.8257882712
-22.984921871
-23.0096570288
-22.9947253863
-23.0173042788
59.8156303897
-23.0411297507
-23.0759905971
-23.0461053676
-23.0731612822
63.3461296382
-23.1259864784
-23.0300344211
-23.1270628596
-23.0281878676
1767.75960247
1769.19868335
640.322244664
642.859746343
1769.75329817
639.891717678
1767.21860502
1768.40582963
1771.44503879
642.432107084
639.826522849
1770.3950322
1769.82627244
639.751436371
1771.86782166
1770.93011579
646.865058636
645.616340968
1771.40060756
646.596634672
1771.45484098
1771.60864495
1770.07782026
647.130192799
646.443159288
1770.69703696
646.862464778
1771.12603676
1772.71853117
1772.98424689
645.043306179
645.342280048
1772.0963091
1773.86524503
646.192859627
1772.66310889
1773.74189098
645.978953623
645.91353934
1771.93979353
1774.12401534
646.474025773
1768.73757862
1768.86898312
644.492995326
645.048295846
1769.60949259
643.945861538
1767.92101406
1768.99336726
1769.96468468
643.765699335
643.068389945
1770.42208168
643.035978241
1768.4217974
1770.19765887
1772.96845005
644.454611141
643.545544945
1770.97696728
1772.07770181
643.555904851
1770.25046029
1772.57336045
642.970086524
642.831624974
1771.35944151
1771.84587442
642.761991969
1774.17307567
1771.74479266
645.146571367
644.003339133
1772.26113697
644.877178163
1773.64027875
1775.929031
1776.62521608
645.915676653
646.031739066
1777.29675021
645.747886673
1775.23004479
1774.82981486
1773.97171738
644.021485158
645.226317793
1772.97926742
1775.70295434
644.969534095
1776.35400485
1778.19713186
646.233367202
646.156207731
1777.55283498
1777.12289048
645.904453862
1779.07805896
1777.79505562
646.050840533
646.071051042
1778.31416752
645.926138689
1778.81867531
1779.90581693
1781.02535541
646.099286966
646.066159975
1780.92705914
645.836891345
1779.82141326
1778.70496444
1778.79072064
646.136689322
646.478363344
1778.21350698
1779.08301314
645.985613654
1779.48723575
1779.81354294
646.03689212
646.341678316
1780.31429106
1779.52128691
645.920896064
1782.87177069
1782.28188323
648.45676076
646.848710903
1781.89796133
647.869939202
1783.5844218
1783.50110157
1785.1815155
649.728516184
650.401225296
1783.82672563
649.123091338
1784.56747188
1781.6191577
1780.10786386
646.701062561
647.216575561
1781.03148594
1780.34457289
647.548967377
1781.95606391
1780.39052409
649.533013213
648.10602702
1782.09557795
1780.46848404
648.603552831
1783.33403743
1785.44893327
654.241651971
651.672809528
1783.86217357
652.822734146
1785.25313949
1782.57099943
1784.09970741
655.282773654
654.298605188
1781.27148094
653.702229327
1784.90061242
1781.13827487
1779.83439135
650.516699335
650.547986262
1781.82967892
1778.91453255
651.454680211
1780.19498513
1776.59594775
652.849077792
651.198554749
1778.9195027
1777.8155837
652.192740426
1778.25831245
1783.12299217
656.669016107
654.498659766
1779.83785145
654.783214117
1781.46595976
1775.97600665
1774.88539147
657.106748873
655.620606116
1772.31249899
655.258268432
1778.92559704
1776.0995765
1775.39240801
653.112463734
652.380691718
1777.61819687
1774.06395736
653.380420867
1773.89241848
1769.65662075
654.197405712
652.807822748
1770.59872459
1772.22634276
653.842272509
1759.20297794
1769.13094085
688.211092245
656.975359876
1766.542386
664.017399098
1761.47911323
1746.00868413
1739.870767
764.055671549
616.197691949
675.639249395
1758.46051203
1744.06258721
1760.08005983
1765.83807801
655.892416797
661.245405418
1765.62643543
1761.68144409
663.620170527
1748.88938878
1773.63238403
619.682007193
671.033095571
1750.78583581
676.13532994
1766.94173703
1794.33926341
1801.63917653
646.778736741
648.570327133
1794.16535446
646.536973101
1800.51853626
1787.431227
1778.77260645
643.51241135
641.515319442
1786.00494232
1781.14823674
643.964196276
1793.80744721
1796.92879153
647.377735291
645.072476382
1793.06177905
645.889689742
1798.77595983
1788.32059884
1784.60335184
641.992734055
643.713964962
1783.07872966
1788.76197801
643.854512236
1773.80489495
1773.78536664
638.423549213
639.587379055
1771.33862717
1776.53767121
638.958014208
1773.16999499
1772.66147449
639.745712704
640.852880712
1771.3906098
1774.01844253
639.565888357
1776.28971286
1781.18402141
640.343631227
640.413460426
1778.98862101
1778.71026512
639.584375598
1775.30148279
1777.5503321
640.643631454
640.326594008
1775.71153779
1777.53866396
639.736298443
1776.3192547
1774.12594462
644.506824134
642.340056372
1775.24320672
1775.20501878
643.577929042
1776.926564
1775.5830279
645.261149649
644.634199696
1775.75100804
1776.91460172
644.459051171
1777.31967857
1777.91905913
641.77429575
642.491488351
1776.4770026
1778.36055248
642.820335694
1777.91142326
1778.55089753
643.992451425
643.158839255
1777.95802502
1778.60850383
643.660940593
1775.23898414
1774.85054681
643.897100197
644.265394865
1773.76911142
1776.27882063
643.887999958
1774.61305958
1773.46671741
643.378120336
644.015278234
1773.219056
1774.60051806
643.594496718
1776.44670369
1778.0848961
643.897875369
643.619432879
1777.3554735
1777.40999095
643.680918816
1775.8287771
1776.9299773
644.144940271
643.817282908
1775.74776945
1776.95906787
643.613938398
1776.84912748
1774.59237219
645.567943125
644.977255373
1776.08816665
1775.5731128
645.983232012
1778.12136284
1778.7253266
646.504303174
647.764603741
1777.421284
1779.46490348
646.967385167
1777.68277968
1777.49727799
645.268523932
646.913458229
1776.55200643
1778.47326696
646.455505727
1778.8589239
1780.36695036
648.525115799
648.169023245
1779.98439905
1779.45751423
647.619439218
1780.2587349
1779.50974859
647.72465826
648.43364551
1779.67549582
1780.25700669
648.548174192
1779.74517155
1779.06383186
647.40435585
647.716425153
1779.53289549
1778.90723305
648.212760773
1780.56127922
1780.82274279
649.197089388
650.148739831
1780.59001474
1780.75194733
649.41612656
1779.89953529
1779.09205923
648.782433022
650.082496961
1778.86341844
1780.12946835
649.218864992
1777.77059765
1778.91656305
647.247179629
647.414496862
1778.99381883
1778.18350411
647.649092876
1777.4403555
1778.70220891
648.063111058
648.642044404
1778.98172612
1776.96298504
648.204536862
1776.99174724
1777.97549844
648.456998284
649.351092513
1777.88398867
1776.73021183
648.493543535
1776.27178423
1774.61191635
648.688119841
649.065481099
1775.52554557
1775.60247944
648.620331456
1775.39063217
1778.02974543
650.038471506
649.021771271
1777.04583108
1776.24009876
649.647299185
1774.46366282
1774.70188567
650.542139558
650.505149091
1775.9134879
1773.50825078
650.153587489
1774.22603145
1774.04351552
648.768356895
649.212053253
1774.82491933
1773.75579437
649.325827535
1773.62948207
1773.104647
650.204207069
649.740408454
1773.00044463
1773.47738262
649.805655022
1771.60371663
1773.52310975
651.605534848
650.844991281
1772.35508826
1772.53055975
651.198751886
1770.59973042
1769.12605458
652.05522711
651.959945224
1770.93325024
1769.47192141
651.672267037
1771.58094777
1772.57882755
650.690221211
651.113050684
1772.25668611
1772.04929303
651.109234473
1770.8671885
1771.03924521
651.966076829
651.566275233
1770.11431081
1771.48512402
651.528096091
1765.70120973
1766.92153892
660.4955006
653.292249551
1764.04363198
1768.09006409
659.839015273
1757.88695409
1780.41472667
670.250336537
629.279616092
1755.74227797
669.21077768
1783.76458902
1766.98102197
1770.28609629
653.3318328
659.150941098
1769.24390332
1767.76064166
659.612100947
1758.74283145
1785.4255489
628.430245454
667.091430779
1758.73415341
668.180118387
1784.93848893
1791.57357622
1795.2297701
644.518157746
644.099556609
1792.34250337
643.980166566
1793.63835321
1789.16703179
1785.80297909
643.714290158
643.186485704
1789.07238056
1786.64875625
643.664864984
1790.96610366
1791.65767633
643.641336726
643.659806936
1790.52475019
643.716305399
1792.48142634
1789.19123524
1787.52356794
643.450568833
643.785169959
1787.19316493
1789.17115753
643.653217207
1782.47650005
1783.00237006
641.275161146
642.527820941
1780.83977649
1784.37040941
642.024100726
1781.21942447
1779.18717266
641.026054824
641.821259912
1779.56764312
1780.59935074
641.762961438
1783.59607787
1785.82253624
643.018392034
643.065287447
1785.2695774
1784.27966152
642.631341969
1782.32407005
1782.16321193
642.304935014
642.822038305
1781.5079892
1783.05156014
642.369672267
1780.03274882
1779.20736019
642.357566794
642.170856714
1779.27789261
1780.2927426
642.571218761
1779.79541663
1779.00069994
642.876126095
643.295202486
1779.2620339
1779.44145053
642.924995426
1780.56854274
1781.5134476
642.523666449
643.163045828
1780.97595682
1781.00300043
642.848360508
1780.26052843
1780.49913995
643.552257144
643.476293072
1779.93809167
1780.68251744
643.147951453
1778.93919473
1778.64742706
643.758995888
643.649400935
1778.23683955
1779.14360513
644.104636997
1778.99526038
1778.08714132
644.228548456
645.623637935
1778.01606873
1779.33808908
644.744813866
1779.81007498
1780.51286753
644.039142737