/*--------------------------------*- C++ -*----------------------------------*\
| =========                 |                                                 |
| \\      /  F ield         | OpenFOAM: The Open Source CFD Toolbox           |
|  \\    /   O peration     | Version:  v1906                                 |
|   \\  /    A nd           | Web:      www.OpenFOAM.com                      |
|    \\/     M anipulation  |                                                 |
\*---------------------------------------------------------------------------*/
FoamFile
{
    version     2.0;
    format      ascii;
    class       volScalarField;
    location    "13";
    object      p_rgh;
}
// * * * * * * * * * * * * * * * * * * * * * * * * * * * * * * * * * * * * * //

dimensions      [1 -1 -2 0 0 0 0];


internalField   nonuniform List<scalar> 
28582
(
19540.7783537
19540.3058785
19540.8692211
19540.484497
19540.9833208
19540.8569359
19540.6690859
19541.4559962
1363.52929037
1342.5415667
-0.112171845806
19541.2493194
16853.9214637
16886.0876818
19541.2747001
19542.950846
16897.5630687
19513.5236556
19514.5426108
19540.2907831
19540.1524385
19540.5246693
19540.0139445
19540.2549281
19540.5242727
19539.3972304
19540.343884
19537.8010843
19540.7983266
1353.87673072
-0.11927799738
-0.0767992041625
19537.9706134
19538.9451433
16914.0466561
16895.6533353
19503.7325662
19540.0774813
19542.0893703
19540.7608781
19511.2021965
16833.0082038
19511.5166215
19503.4750928
1364.50339798
1348.86780926
4.91916609877
7.802005303
1351.52063599
5.49515902628
19503.1830807
19503.586149
16865.4765677
16859.8111486
19502.2020288
16867.5132589
19504.7270098
19505.915468
19510.2309783
16876.3701034
16884.5619126
19509.0755048
16874.9367195
19507.1326642
19514.4628591
19513.2605033
16896.7241503
16896.1993537
19512.4328796
16907.3733008
19514.1071962
19513.0887706
16887.3803226
16914.8342941
19514.4887378
16898.9442981
16922.1569818
19513.9325344
19515.9126711
16947.4883071
16962.2714095
19515.9172838
16970.5634404
19517.3379259
16962.3603156
1323.71753165
7.26382666973
1259.50303098
1288.83869383
6.94859822009
6.71059900567
1349.58465629
5.60101772781
7.63182771846
1354.53643018
6.2762730847
1361.93099072
6.65770704165
19502.1617852
19502.4183928
16910.0884181
16879.4215972
19502.244937
19502.1571782
16877.3616172
19502.9979465
19503.5556995
16903.8693696
16873.6680249
19502.8382498
19504.2084553
16870.783475
16840.2193153
16848.5826793
19504.9923525
19504.3093331
16860.6429547
19505.5053337
16854.7737436
19510.9395332
16868.751047
16893.9157974
19507.686698
16849.6977507
19507.3335558
16869.6835683
19503.9347664
19498.2796389
16840.0394124
16835.0270704
19503.0172388
19499.713286
16853.4692963
19507.6801468
19512.5412766
16917.0259915
16937.3411652
16902.1516779
19506.8236789
16878.7028208
16870.6942412
16836.9196838
19499.9564182
19502.5047839
16825.0367147
19499.0389525
16849.0156852
19539.3019819
19539.3929983
1374.29746334
-0.0757921126372
19539.597006
16857.9020679
19539.7723464
19539.4184678
16817.1453227
16788.5862103
16665.7208021
19539.3202283
19539.7088104
16657.6186925
16669.0936584
1343.24045505
1375.9657724
1403.48818104
5.534715542
6.14777571823
5.6246290213
1429.28995652
1448.01131656
19508.4462357
19506.3513819
16868.866604
16873.8638559
19506.7613934
16882.2737059
19508.2379655
19492.9727515
19493.7659502
16800.1593322
16811.481803
19490.5941431
19496.0220446
16784.5120008
19493.0717183
19496.9282228
16793.5953802
16736.4578846
19496.171767
16763.8200548
19494.2380005
19492.3990905
19493.6214026
16710.6526708
16693.2548131
19493.0369813
16733.4103905
19492.7275666
19497.2110815
19495.3970856
16694.5372499
16659.9862232
19494.6961756
16698.2758925
19497.7471962
19499.8510405
19500.3706721
16702.3090351
16664.0602559
19501.5211292
16702.246921
19499.273882
19562.3039145
19556.0232609
19553.630458
19548.7468391
1004.00676006
1034.92954648
1018.36957609
1067.63882225
1106.3496544
-0.136934824528
-0.159236249086
-0.0912326132161
-0.14910129369
-0.09506748254
-0.114390251056
19563.0312473
19562.494268
17694.385894
17733.859172
19564.9963997
17743.3126321
19560.9895446
19558.8917733
17748.8536753
17746.3296482
19563.8511528
19559.0866398
19559.1355054
17755.5412362
17787.3204896
17740.0015309
17716.4858686
19558.3304243
19555.0026068
17794.5868564
17768.6035119
17693.7990946
17541.7960319
19555.1794608
19552.0314274
17684.0702976
17633.9211148
17424.3527189
19550.9008793
19550.4457939
19548.2991729
17607.4017346
17464.4804422
17396.2806378
17293.8783313
17369.427367
17274.7166433
1050.87598643
1026.34675772
1029.15096813
0.456533015012
0.500695615987
0.432443107891
0.410850649733
0.611716436618
1.99885860815
0.445472888178
1.00924394015
997.337968974
985.609680357
1017.63480397
996.210272131
1015.00693773
0.544369635682
0.481114049505
0.937826870408
0.823453140096
1063.00259503
1041.25868438
1078.19998176
0.440841700779
0.690177646732
0.849837917563
1.31325439255
1041.63721668
1070.5394284
1.40473899921
1.30971600681
1.67625545825
1097.04108163
1095.16161151
1120.46753904
1.38965916975
1.62960402655
1.79570137007
2.16844499364
19548.6035066
19551.4739971
17680.9125364
17705.4094433
19551.5880233
17692.9181597
19548.4546161
19548.3944009
19551.2059237
17719.5822821
17727.603555
19551.3824248
19548.6247966
17708.7845967
19555.0517129
19552.7478656
17731.8106985
17758.2998098
19553.5079853
19554.226662
17749.3276616
19548.6893187
19551.0332131
17743.0702392
17762.5551949
19549.0399042
19550.5430825
17761.8872289
19547.4579132
19547.3504405
17761.8931861
17754.5906717
19548.9480776
19546.1523495
17763.4703012
19552.6973015
19552.1234943
17764.0928099
17765.4421614
19553.3375478
19551.7732486
17768.2985273
19553.6780219
19555.7780609
17775.8782004
17775.4785674
19554.73993
19554.4284533
17772.4646344
19550.9696352
19548.1528373
17760.6069827
17734.6735749
19550.2749653
19548.6958305
17758.2505918
19551.6668254
19549.2869677
17757.9377763
17727.4322116
19551.9958542
19549.2899773
17758.3055013
19554.4374997
19556.4856435
17801.3221085
17778.1451365
19556.4114216
19554.8654437
17777.6056044
19552.6026421
19550.5556564
17794.7751798
17705.9688777
19554.7927045
17754.4015281
19548.05398
19551.2223725
19548.9031131
17747.1159972
17658.0591601
19552.0843855
19547.5936379
17732.5046288
19549.1632146
19540.8977054
17632.6391641
17604.8063093
19545.1227943
17691.1228036
19544.8278583
19543.1840572
19545.960328
17671.4404315
17627.9144667
19545.9163183
19543.358613
17606.3222431
19542.8742035
19545.5839895
17652.3829471
17551.6829395
19545.8604461
19542.0725864
17581.3319608
19540.1428767
19537.1263636
17480.4156979
17452.7148101
19539.408908
19537.8658847
17511.5809155
19539.3239878
19544.9872679
17569.7252838
17519.3717799
19543.4355742
19540.9164096
17482.6925505
19537.0481694
19537.4460462
17521.1547686
17385.5780187
19541.0656224
17438.0177211
19533.8235225
19537.1273647
19536.4313421
17449.1624854
17366.8035496
19538.5894767
19535.2882969
17414.8846801
19535.2406926
19531.5018986
17333.7499947
17333.1482926
19533.6581731
17377.0577756
19532.6878074
19534.3749051
19535.6748662
17342.0274353
17356.4923948
19534.5670754
19535.6079727
17330.652584
19531.1407297
17310.2619879
19533.1309113
19539.0571331
19538.4020923
19538.3892603
19541.5567313
19543.0558501
19554.3418672
19539.0493656
19538.5044117
19538.5145235
19541.309554
19542.5396135
19554.5267094
19527.654409
19530.9897505
19527.9282201
19533.4269416
19537.919913
19541.3292063
19546.9655768
19527.1457561
19529.9555561
19531.9858982
19533.8107183
19535.1772916
19536.4193599
19536.8957837
19537.2956381
19551.1943081
19535.5282122
19534.1696013
19534.3283454
19535.3088316
19536.5585709
19537.3249159
19537.6539809
19551.810182
19538.4812795
19536.894666
19536.4639856
19536.96182
19537.9207299
19538.769379
19539.879419
19553.7390595
19539.0151963
19539.9651511
19541.5203381
19554.1303707
19525.7477036
19528.2560771
19529.8935427
19534.3256028
19539.4725234
19546.2900925
19604.6880726
19429.7094323
19529.9252533
19531.405694
19535.4620543
19536.7605949
19536.7317467
19535.6943152
19534.4394149
19538.7170091
19534.6359537
19534.5054148
19535.1952492
19535.7350776
19536.0153193
19535.9476693
19535.536434
19545.9656971
19538.1346585
19536.9215071
19536.8237557
19537.4287243
19537.9530529
19538.0215277
19537.9674806
19552.1920814
19539.0181497
19539.6651068
19540.6382829
19554.2384558
19523.7297657
19526.6691645
19526.7543337
19531.3078669
19534.4814685
19531.943614
19525.1232198
19462.405417
19528.9069885
19531.2599052
19529.1002818
19531.7223576
19532.1514599
19527.9398769
19516.2271266
19508.1751475
19533.7983775
19533.2813257
19533.9133597
19534.1497828
19532.9570402
19529.6215136
19522.679368
19540.7531199
19539.9890828
19537.4907674
19536.2113481
19536.1426941
19536.1110921
19535.3828281
19533.8194723
19529.7721469
19547.2650025
19538.8293553
19538.4715258
19538.187981
19537.5502126
19536.8061068
19535.1461882
19551.1220475
19538.8708697
19538.2371599
19552.2998776
19525.7880234
19526.5032926
19527.6022151
19529.6678795
19535.4493418
19537.8243248
19534.4751229
19507.6913958
19528.5514885
19527.9052867
19530.1548071
19530.7222867
19532.7553447
19533.253487
19531.5083391
19527.2210069
19515.1446658
19546.7076829
19537.2488817
19532.971516
19532.718834
19533.861379
19534.4811305
19532.4383261
19529.9444867
19528.0814449
19530.2402522
19539.8512673
19536.4406382
19535.6545675
19536.1309834
19536.4824948
19535.3694338
19533.8194531
19533.3328013
19538.779338
19538.3406979
19538.5582121
19538.3185115
19537.3848954
19536.9814919
19538.1216924
19543.879626
19539.1557526
19540.7869453
19546.0014726
1343.56508183
1358.12240482
1321.35761534
1295.99992082
1284.45691958
1339.54346064
1447.46230433
1550.40398781
1104.47297911
1211.66905187
1263.64022555
1269.89398039
1309.55611602
1287.11075635
1325.1669945
1373.78524695
1441.76975027
1466.67587999
1128.30488238
1183.49382099
1202.895413
1241.16481828
1303.74281177
1350.76692778
1373.044021
1410.26462005
1434.69870058
1432.29428254
1191.66259498
1220.87256921
1269.14128058
1307.7731582
1349.62591119
1378.7610282
1394.65046616
1422.0888758
1408.17376247
1313.9344822
1325.99559247
1335.36871258
1378.12546729
1401.02502706
1416.41711728
1390.72646687
1411.01302539
1433.2741888
1408.79020559
0.228470594783
0.260497844891
0.460003254789
0.721972171125
0.905707315688
-0.10474779087
-0.122425574295
-0.0664059064533
-0.171389432836
0.556704349155
0.506645901605
0.289222305568
0.0822789377243
0.240640201282
-0.112771988109
1.10164806193
-0.0875046097554
-0.14075807985
-0.170232266285
0.358326601574
0.5377130443
-0.13609810648
-0.194599101862
-0.0583328622143
0.0412403977902
-0.0662038113372
1.24055584126
-0.109405710717
-0.212553369907
0.525366846782
-0.137960872895
-0.146800366012
-0.0958386786196
-0.0484825010933
-0.0763352174755
-0.0289491727366
-0.104020933508
-0.192388247859
0.626475786608
-0.0887158482757
-0.0425189403719
0.856441468552
-0.0907578983783
-0.152054827891
-0.19938479994
0.641231599926
-0.117891535714
-0.21335599527
0.751475086433
19529.5080028
19528.0060047
19529.8497365
19526.9035945
19528.8651432
19527.7075606
19529.1607275
19531.8586562
19531.5559654
19532.7067653
19530.2189214
19527.1058545
19530.2481135
19529.7006186
19530.7642688
19532.5095251
19532.2145565
19529.5446984
19530.6861521
19532.0153174
19532.2412319
19533.015921
19532.7532141
19533.7153
19531.7479735
19532.0538404
19533.1796596
19534.3105163
19527.4060532
19527.2692963
19528.3280576
19524.1817803
19526.1773219
19525.9803389
19527.5454719
19528.2501656
19528.8982623
19530.1033994
19527.2110017
19527.2360526
19528.1563377
19527.7255014
19530.609895
19531.6448016
19532.0872275
19529.1568157
19530.3273476
19531.2398596
19531.4707793
19531.785916
19532.9907915
19536.6102535
19531.2154823
19527.6212527
19531.9544211
19535.0908974
19525.5107186
19525.9259546
19527.5005813
19524.9347928
19525.9576273
19527.4357831
19528.2867303
19526.7785649
19528.2505201
19528.2681553
19526.4206699
19525.0822134
19528.5109005
19529.2836431
19530.3129624
19530.7530372
19531.1438605
19528.5351861
19529.8130981
19529.9987674
19530.7125827
19527.2566441
19531.5984617
19533.4525948
19530.4545213
19529.5393306
19531.292955
19533.2376289
19523.5630369
19525.5321254
16592.2143719
16695.3064423
19526.2213459
19527.2030796
19527.7279985
16641.3555046
16549.0440222
16721.953606
16726.2487914
19527.5066807
19528.283202
19528.8498695
16495.6808272
16486.2627425
16706.9912407
16660.1473325
19527.6936992
19529.0532542
19529.4644845
16538.8429004
16716.1239359
16683.1778434
16796.0359009
19532.8303789
19531.0196543
19532.8662633
16758.1727282
16859.8425117
16791.5044204
16822.953903
19536.8868504
19534.4120546
19535.0259369
16881.9950595
16916.6223728
16829.5629248
16787.3436884
19537.6431725
19535.2275108
19534.6629431
16908.1757707
16759.7991448
16736.5051179
16557.446375
19524.4383198
19533.087269
19524.8514757
16657.8315258
16398.4740611
16498.1103371
16357.2799553
19492.7564745
19511.5387685
19515.17
16557.7704878
15788.7451605
16462.9172467
16213.491932
19547.8832094
19539.8282699
17644.9507375
17004.1138853
17463.9331227
17139.7861385
19526.9489874
19533.6398202
19530.748642
16839.9667574
16759.6950809
17036.5709034
16933.8651363
19529.3408941
19530.3244903
19530.9029173
16790.5490785
16834.3007656
16943.7308726
16952.6253729
19530.1658747
19531.4753487
19531.9165186
16799.9499639
16664.0030006
16916.570482
16774.3680742
19531.680396
19533.2262813
19534.1941671
16681.986266
16812.2159795
16751.9263495
16787.3869719
19533.3884002
19534.4078907
19533.9165309
16848.1232843
16790.6237704
16814.9313982
16723.2448225
19532.555165
19532.9543293
19531.601553
16771.9732075
16735.4898506
16672.9965829
16540.1238887
19529.8718716
19530.3045855
19528.8567602
16694.5442934
16523.7595763
16512.328737
16477.1344103
19522.2773365
19527.6711911
19525.9852981
16483.4982769
16348.5113101
16471.459376
16423.7657692
19534.236201
19523.8799443
19546.0677585
16458.0093227
16319.8160109
16555.4083128
16420.1931302
19541.6638025
19545.470672
19542.2318561
17403.3176173
17165.0035927
17262.9520803
17174.9463462
19534.2406296
19539.0884901
19536.4696311
17079.8508179
16976.5604393
17121.1132951
17020.9862471
19532.6746067
19534.9706688
19534.2666476
16978.4047425
16948.7324689
16997.5832789
16920.6414304
19533.116474
19534.0221617
19534.2722859
16918.4246511
16803.2175655
16901.797081
16872.0974855
19534.4703942
19534.8644994
19535.3820261
16778.2699285
16774.8160555
16870.9870757
16818.1885054
19533.7058197
19535.4837041
19534.9904635
16768.2636744
16717.5475237
16786.8635298
16744.9240455
19531.1284069
19533.9457907
19532.9234699
16680.7616936
16501.0729919
16750.6584195
16666.4810206
19528.8799897
19531.9441749
19531.0127061
16484.2930296
16501.8723127
16630.2238672
16591.7947087
19528.2459358
19530.6999431
19531.8367052
16484.0917103
16423.0164046
16579.3482415
16529.7034006
19549.9415002
19535.1116214
19552.8593933
16560.9332517
16442.8663704
16648.6271764
16519.0612508
17247.9472767
17167.0637281
19537.7234704
19538.2221022
17114.8947187
17014.7089489
16959.3624639
19535.8822154
19537.2997893
19537.0572305
16990.2402216
16915.2232193
16936.6941993
16901.1271275
19535.7833557
19537.0819639
19537.1864865
16902.77968
16878.267325
16892.262065
16883.2700925
19536.4291621
19537.2690301
19537.2584134
16872.992684
16815.6105274
16876.9053689
16846.1186897
19536.1125307
19537.2200079
19536.9866424
16797.5753964
16782.0035155
16840.7261526
16828.10806
19534.5473493
19536.5107148
19536.0531077
16773.0190005
16691.3139855
16821.1100938
16765.0372675
19533.2695753
19535.6539133
19535.6253469
16666.3078794
16604.0583249
16744.9716155
16690.5480671
19535.0719683
19536.074533
19538.0510512
16597.106336
16578.7331954
16684.7085065
16689.5114742
19554.9484757
19541.8201824
19557.2616894
16701.4667942
16558.085649
16804.972286
16618.1930731
19538.5511891
19540.0250298
16888.895178
16877.447695
16883.8748708
19538.4025734
19540.0503695
19539.8341743
16868.0502443
16834.1070622
16888.885344
16870.9552231
19537.9875058
19539.6293631
19539.2058366
16837.0279907
16830.7556657
16873.327749
16833.8872908
19537.1127348
19538.5649227
19538.1632481
16817.4164659
16768.3552179
16812.7899778
16775.0002435
19537.2329213
19538.2107811
19538.5845675
16753.5565928
16716.180836
16765.9690771
16745.033632
19540.263467
19539.6523147
19541.8981345
16717.2943642
16726.7800652
16746.0458731
16758.0720018
19558.5556693
19545.1650787
19558.8468543
16835.2584069
16623.4156345
16863.5716783
16632.3543284
19539.0788405
16763.6656562
19539.6494198
16750.7710747
16737.2072334
19542.9567559
16739.8380715
16744.2220768
19558.2964719
16850.5334341
16622.6674916
13.054085526
18.1395585929
7.90919881824
14.318012492
1313.62765911
1287.41690546
18.8355708799
17.6233354378
16.0004388552
16.0767632827
1362.24806601
1314.98030775
1322.01716272
19.3945620661
21.8277863918
16.9157840067
18.9883204412
1332.14534734
1302.23376304
1293.39828912
27.1700772555
34.190219806
25.9953808139
32.3571273038
1313.11509609
1299.52701085
1298.46147944
31.6606988129
14.036743812
31.1707527314
19.1374118
1279.96557745
1301.86927869
1291.09320609
3.35918225289
2.0720924834
6.04474838062
3.62547417156
1303.86854194
1292.16482707
1312.27936696
1.89857621705
1.5985048111
2.98129749195
2.18285976354
1389.32821039
1350.27078918
1398.20757054
2.47666350692
4.54111964758
3.15140872084
4.742729781
1505.12351743
1443.70247174
1486.87389144
4.88267710869
5.47920886032
4.66532449598
5.07785551738
1679.56296648
1497.97755956
1624.65068604
8.25179553089
19.6226714181
7.41322550848
19.8092825852
1159.58981549
1112.30898208
1151.57417891
7.86542928003
14.6665571405
7.22151391885
12.4357985826
1247.24244895
1192.31263182
1211.42460762
14.5244856691
12.6194531711
9.05863778133
7.69722951305
1264.29235295
1220.11121159
1227.5825504
10.9901571313
11.8318534014
6.05616118236
7.1209365642
1290.44138435
1243.7261672
1275.28976311
16.5819291965
19.3230521419
10.8227388991
13.2052360101
1301.04895047
1308.33807831
1319.10886942
17.2600635093
19.6705203169
12.6751519755
16.4439837403
1303.88217881
1308.92332142
1327.89248139
24.9301606755
11.6697518975
27.165148282
19.8229300169
1344.40591308
1363.47636327
1381.87224227
4.55211816401
3.2459667828
8.71942675986
7.01026642485
1412.93316378
1396.007996
1417.82294841
4.39604426889
5.81506442392
8.45150051765
8.01330539692
1476.88773585
1438.02921798
1466.41567549
5.93440476433
5.72210310838
7.04124235648
5.67161797456
1589.76305102
1444.56356336
1541.95231484
6.80719920232
12.5315325378
5.69546762628
10.0437210706
1153.98118584
1141.36094206
1158.12575688
5.88884753475
11.360068336
6.14817603398
12.8213538045
1193.11551254
1184.33062809
1196.05840287
6.45806653306
5.69760786571
6.52802551962
6.43578774872
1218.03857321
1210.11228918
1229.43519486
5.06582750945
6.34852343618
6.58088809869
7.9565002675
1272.10057148
1251.75008256
1276.04508224
8.50280571391
10.1985003384
8.61530474515
8.88635086608
1330.21604059
1300.43405611
1327.08528512
11.6782249022
12.8497323295
9.84734402173
11.4816515603
1364.58535733
1354.28436722
1374.77480673
13.4552162032
15.4894629287
12.407820564
17.0608100264
1394.03655971
1364.88873784
1371.15645351
20.9987979894
18.6164072862
30.3533225972
31.3420914851
1418.73896837
1406.28419353
1416.39081999
10.476350204
7.5974652907
10.246941024
5.56487761444
1459.53114614
1428.73810564
1450.42047379
6.83727029372
6.45967022172
5.80510346341
6.55576908228
1516.24937899
1423.09268364
1500.60722059
6.38726099761
11.4259836457
6.80747919965
13.2814039305
1203.56819738
1215.65734442
6.06746141111
6.34563377507
7.14944665403
1244.61113886
1233.87510875
1261.78414398
6.63884376277
7.45409607729
7.13350276136
7.38352560465
1289.51357571
1287.67346309
1303.40266839
7.54191413878
7.51730908905
6.98484844542
6.73179589538
1328.47288453
1312.67598753
1325.22343067
8.26159299293
9.47792995646
7.45747381843
9.88479204858
1366.03529907
1342.18208058
1359.88595391
9.72275902403
11.72280205
10.4517759975
8.94328689075
1385.39054458
1371.36856725
1382.45789216
12.8947511786
13.0316022435
9.43824589566
9.67669900454
1408.46381671
1392.51483812
1408.46457428
10.2636146423
6.86815642542
8.67378695867
6.42557501596
1439.8412714
1419.05782849
1430.81338097
5.8203076139
5.60287313009
4.83657395948
3.66887465974
1488.25685346
1397.40539786
1479.73331287
5.86778913767
14.2218203893
4.2981610377
14.9509447402
1325.53560568
1347.42466463
5.88761049946
5.32012396146
5.86727943594
4.88109592841
1329.40685681
1341.78615214
1338.20981945
5.26765334436
10.309068486
4.6233851524
8.99840922
1359.8941504
1336.54364211
1363.51260007
24.4599848561
13.6493442995
24.8316997714
11.9293130124
1388.77959499
1381.2929085
1391.23305517
7.59320788054
7.30749566106
5.7414322685
5.43822058651
1414.42941602
1404.19871033
1417.44241184
6.16206210581
5.56968290693
4.97499273192
4.88162922398
1424.87077912
1420.37350984
1427.90928211
4.62939819423
3.80865473143
4.53387838465
4.21706974975
1475.8425522
1392.70604682
1480.06124566
4.49495423323
15.39654384
5.10552513623
15.9127320747
1392.28954471
5.20196853197
1425.50832636
5.29117791677
5.21663921231
5.10500691238
4.94053968099
1445.46261931
4.58580682329
4.79406537657
4.35265528389
4.95523919697
1491.66389932
5.71034889185
16.8742008367
5.88853274594
19.1575492373
19486.1810278
19488.3146958
16520.6880382
16637.3955267
19490.5566535
16572.0711869
19483.4304814
19487.6393647
19491.4637051
16651.2732879
16670.909845
19491.365449
19488.9351642
16597.2061565
19490.0149711
19490.1742089
16630.3971286
16668.937728
19492.1718399
16655.1948454
19487.5798781
19482.9326377
19465.7865424
16603.7797637
16580.362581
19470.2768117
16625.4332302
19479.061486
19491.5373402
19493.0094949
16695.7990738
16738.0016209
19493.0130786
19491.915413
16701.7920542
19486.3979878
19482.6683794
16642.1111572
16741.6442768
19478.269912
19487.7924475
16681.55352
19459.7233429
19454.9394086
16438.6407595
16535.0259886
19460.515299
16502.6668261
19452.3966106
19461.4746366
19462.4530779
16448.9374026
16550.5379543
19468.6863661
16511.373264
19454.4216829
19474.8242189
19480.2717702
16609.2667502
16678.5665718
19475.331554
19479.0789361
16591.5522446
19475.8193127
19483.4695839
16609.8446507
16654.845045
19480.5659336
19479.4712306
16583.2466633
19488.861104
19473.5466315
16608.4453343
16603.4856082
19478.1132859
16668.5145024
19486.0915174
19498.1851584
19503.333199
16665.7359252
16767.4902677
19505.1785729
16720.4010526
19496.2169271
19494.3466585
19488.9862107
16643.4465027
16734.2555725
19486.8626552
19495.6555857
16700.6653846
19501.7293539
19508.0274351
16782.5753567
16762.6348822
19507.9517175
19502.1794972
16738.5937157
19514.5893808
19508.8074394
16799.0345195
16801.0692392
19510.6140135
16831.2077087
19513.3429424
19516.8575739
19517.2817217
16833.6686791
16881.3035852
19518.0757925
16859.1711736
19515.9286727
19516.4013264
19513.2722679
16778.255759
16798.8060663
19512.601625
19517.3414468
16785.9856547
19518.5218714
19519.4146683
16840.024149
16819.50423
19519.2015479
19519.051562
16814.0021254
19519.005166
19518.186033
16904.469253
16905.0297448
19518.8924356
16912.0216933
19518.2753733
19517.9712745
19514.6601482
16918.1990982
16904.7756104
19516.0786881
16912.2495407
19516.9989503
19519.3027645
19519.6190788
16869.0533573
16822.3229659
19519.5008774
19518.842951
16875.865564
19518.4460537
19513.4650061
16864.2868745
16816.8502783
19516.2828636
19517.1395043
16881.1460541
19509.4678031
19511.8973133
16897.2050568
16877.4858989
19513.6172496
16832.7807218
19508.6682409
19503.7709542
19500.3282528
16842.5753045
16671.698407
19497.5534308
16756.3450543
19504.6530427
19508.3768276
19508.0685867
16824.9673008
16681.2433417
19513.0121634
19501.4411642
16772.9926687
19501.7580673
19487.6625959
16627.2092745
16615.9302551
19494.4937821
19494.0291823
16703.1737141
19487.2872091
19495.036131
16565.8342362
16580.0824674
19490.9111166
16508.2670492
19491.4582896
19484.9391916
19485.2844394
16489.1925232
16362.8301686
19481.9966477
16447.26221
19488.6793769
19483.2809038
19480.3662916
16549.1448071
16460.4947749
19486.4616957
19476.534853
16486.6874719
19481.1323873
19473.1940207
16369.4421438
16417.2226127
19478.9516698
19474.618424
16443.8103845
19450.4776329
19475.2327631
16418.2334621
16434.9109908
19472.8412854
16416.2460702
19444.4797052
19385.9004377
19280.2108639
15582.7324657
15941.5190879
15967.6240353
19362.071263
19264.5061102
19452.5944845
19468.2328698
16460.6104634
16410.0293364
19471.9468172
19453.0948916
16383.6650413
19387.7403197
19442.1210696
15993.1070846
15646.7964229
19403.0738738
15574.7944293
19417.6619934
19530.5552267
19542.9057021
17459.8704113
17594.9731
19531.9455976
17445.5817631
19540.5244297
19519.0405505
19506.2097992
17235.9153242
17071.8613939
19518.8932224
19507.3531025
17259.0760074
19528.3658593
19535.02948
17541.7994983
17363.3536164
19526.9228051
17416.3320051
19537.8839226
19517.5213486
19507.5173354
17111.2602975
17249.6346401
19506.2312743
19517.2405196
17269.1649039
19491.5655878
19495.5095774
16731.7208107
16923.2823025
19489.5792324
19497.5573569
16825.5716029
19489.1020084
19488.2565722
16738.6797519
16803.9562024
19487.2714025
19489.3388595
16793.0850724
19490.7831411
19498.8565288
16982.8685799
16951.12711
19496.5672083
19492.6917789
16891.418784
19488.2496533
19487.8964329
16871.758141
16930.626535
19487.8509099
19488.9424628
16861.8792656
19490.4536178
19488.9618179
16821.8666218
16830.4829781
19488.6574733
19490.118759
16865.9056938
19489.9942753
19486.3701833
16841.3140342
16886.4088053
19487.9537914
19488.3472567
16891.0890918
19488.9772107
19487.8810223
16892.5718994
16962.3680878
19488.1688227
19488.1533982
16921.4462511
19489.7446135
19489.702031
16931.2959186
16958.8828554
19490.387015
19488.7880826
16931.4887315
19484.6062022
19484.5172447
16748.7343792
16855.095679
19482.776592
19486.5892402
16804.5708766
19482.8243522
19483.2530116
16699.6143485
16705.3213403
19481.7363972
19483.5593468
16753.7094394
19490.1489962
19491.0803009
16899.1500474
16868.2861405
19490.8018657
19491.9688673
16847.2035386
19489.3350164
19491.7375
16737.7524224
16820.4882709
19488.4284051
19491.7447276
16791.4194282
19489.8785504
19485.9579617
16722.7083685
16711.7301627
19490.1060993
19485.994203
16735.1777433
19494.3275522
19500.5845934
16765.6523072
16809.813336
19494.794573
19499.3408518
16767.769221
19489.890791
19491.0609806
16726.7702383
16755.4709051
19488.0689217
19491.9149105
16738.0510768
19492.618628
19495.0844005
16797.0037538
16769.5143912
19496.1989378
19493.1253703
16763.2583318
19506.8863037
19506.1574738
16867.6187319
16850.6833717
19509.4577647
19504.0309774
16862.8214123
19506.4617097
19509.4371143
16834.7675078
16769.6341429
19509.7338699
19505.5046265
16825.929839
19502.1741323
19497.4857728
16833.1780239
16809.4557172
19499.4824462
19499.5724213
16853.6340716
19502.5567002
19497.7989925
16751.2690621
16772.5925688
19501.2946459
19499.2550626
16815.7869809
19502.7257646
19509.1389322
16753.7813574
16729.7280776
19508.3395102
19504.3629632
16696.0686548
19499.9371843
19502.3487819
16754.5895579
16664.0970291
19506.3168735
19495.5722018
16686.0252512
19496.7558928
19495.3575809
16693.5007608
16626.9644144
19499.6308161
19491.323089
16640.8214953
19492.85071
19481.3247586
16591.8139414
16587.1296883
19487.8415151
19486.225848
16615.9389377
19482.7909258
19496.4039661
16639.8456625
16626.429288
19489.0048577
19489.7982065
16580.0964072
19474.6574699
19472.4714606
16577.3217941
16488.8233448
19480.3149913
19467.2106763
16532.6058526
19479.9242881
19477.9500321
16566.352699
16496.6418846
19483.5428654
19476.4487113
16538.3144983
19475.750413
19472.0310255
16478.8879875
16484.2808461
19471.1012893
19474.7119125
16512.0511681
19453.1052638
19463.4964535
16449.9307859
16452.3602728
19458.2610232
19459.0531274
16430.6485804
19451.503492
19455.8375024
16407.1955936
16371.2442871
19456.5215639
19451.7832326
16398.7420776
19459.7084304
19467.7366658
16454.2249625
16461.8742952
19464.7731121
19465.3910291
16431.2720452
19458.8118027
19464.6697348
16383.1743721
16428.9318052
19459.525478
19464.4435302
16393.1325485
19439.1814976
19452.4348505
16424.7702295
16491.4867628
19440.0754399
19449.5479785
16476.8659998
19408.0165624
19448.077024
15718.9943772
16364.9245573
19402.84546
15825.240507
19455.0760754
19449.1547072
19462.9917758
16511.2377718
16538.8823256
19458.0969958
19453.7596851
16497.5637318
19423.2044304
19474.2045724
16396.1429467
15901.6375408
19428.0317537
15869.9689399
19468.9034127
19524.4353431
19532.6120051
17328.4378108
17329.9251469
19526.1676644
17277.4774809
19529.6869695
19517.9241606
19509.4658054
17250.8934473
17168.8504055
19518.2927343
19510.5502141
17225.0688131
19525.8022306
19528.8799401
17293.2958384
17234.234009
19525.7712553
17254.517605
19529.6812053
19520.6549829
19516.1147353
17174.6787431
17207.4269117
19514.6079995
19521.4926337
17217.1086825
19496.9888136
19501.0136752
17011.1607565
17103.1480795
19494.6160109
19502.9609042
17041.4987109
19493.3367231
19488.7446071
16988.3913365
17013.9681879
19490.857712
19490.8396026
17026.9046205
19502.7576216
19510.0524934
17115.4871392
17067.4915577
19508.0318455
19505.3584385
17061.8650856
19499.0686807
19500.1884491
17017.5715868
17044.9869906
19496.8070047
19502.2671106
17038.7044404
19489.2978116
19488.545691
16980.4731345
17003.019885
19488.7330269
19489.6813566
16995.7435047
19489.4434791
19489.9354442
16965.700778
16945.7567993
19489.2851891
19489.8752382
16971.799867
19493.4434927
19498.7025741
16997.6878024
16974.9516154
19495.3731885
19496.6050371
16981.7913732
19492.8932919
19495.3822922
16935.1321419
16945.2675509
19492.9046255
19495.3431336
16956.6366755
19492.8542156
19490.911656
16881.4899871
16911.9632676
19492.4436637
19490.9687924
16878.9912086
19495.7857974
19497.0146484
16841.8960538
16825.3626793
19494.834422
19499.7387953
16849.747957
19495.0666605
19495.9486902
16912.5367574
16887.9862709
19493.5591636
19497.3744422
16891.2012179
19497.5910755
19503.4234454
16860.5066717
16877.4633763
19501.4423396
19499.8675458
16875.0910952
19502.0686739
19497.5545276