/*--------------------------------*- C++ -*----------------------------------*\
| =========                 |                                                 |
| \\      /  F ield         | OpenFOAM: The Open Source CFD Toolbox           |
|  \\    /   O peration     | Version:  v1906                                 |
|   \\  /    A nd           | Web:      www.OpenFOAM.com                      |
|    \\/     M anipulation  |                                                 |
\*---------------------------------------------------------------------------*/
FoamFile
{
    version     2.0;
    format      ascii;
    class       surfaceScalarField;
    location    "13";
    object      phi;
}
// * * * * * * * * * * * * * * * * * * * * * * * * * * * * * * * * * * * * * //

dimensions      [0 3 -1 0 0 0 0];
oriented        oriented;


internalField   nonuniform List<scalar> 
92311
(
0.203966724366
2.85889496218e-05
-0.00124702647843
-0.203747318664
0.00099903215223
-7.61101160079e-05
0.204134571051
-0.000901864474764
0.000810460298589
0.203983187182
0.000106859652654
-0.0012990147102
-0.203781135896
0.00101903474656
-6.34643571614e-05
0.204111396348
-0.000900334584973
0.000759912478382
0.203683670008
0.000158014251296
0.000128967134971
-0.00135613379686
-0.203797485142
0.00101827137965
0.000141523555552
0.000130266419755
-7.63668110899e-06
-0.000103708042206
-0.000102386086169
0.203976502202
-0.000883814554523
0.000731929474203
9.5369508918e-06
0.0511655294986
5.85998192565e-05
5.07231588054e-05
5.29774197159e-05
5.68771823588e-05
-0.000369207942151
-0.05114876015
0.000291322593363
-0.0512075723395
0.0512067904759
1.02859879989e-05
2.67814259678e-05
2.09990745227e-05
1.44970121741e-05
-0.000244152278229
0.000164766899
-3.64199634232e-05
-0.0103558807768
-3.36571366042e-05
-3.09914490902e-05
-2.70976937229e-05
0.000611857565773
0.00799130964735
-0.00134618806263
0.0032270959009
-0.0200412637291
-0.000377522711266
-0.00096321004231
0.0179842412831
2.10408749421e-05
1.9453758093e-05
9.78972734308e-06
6.10224919689e-06
0.00334125330363
-0.0132240690695
0.00302212777713
0.00484573819491
0.00420659819334
-0.0173737464488
0.0380973088634
0.0415924194047
0.00392708501794
4.08080229691e-05
4.34798452631e-05
3.75110257747e-05
4.87284643139e-05
-0.000306555194566
0.000223016719788
-6.8005915598e-05
0.0117707090515
7.86057944598e-05
-5.6169086896e-05
-0.0117615377529
0.0118057207287
1.51555549996e-05
-5.06069549398e-05
-0.0117954468125
9.16795090227e-05
-6.64839615956e-05
7.71409518113e-05
-2.5864703287e-05
0.0512380746178
-2.15974137332e-05
-8.45992171696e-06
-2.86044662116e-06
-0.000153297994028
-4.47271881288e-05
0.0511708947834
-5.3998792947e-05
-1.84443394138e-05
-2.65932747766e-05
-0.0511209863488
6.85743104461e-05
-1.37166306646e-08
-4.23333896468e-05
0.011818242946
8.45136251167e-05
-5.46724644956e-05
7.04504155893e-06
0.0127667681081
-1.79134054757e-05
-1.73365794054e-05
-0.0127644309658
0.0127566762914
5.47551976277e-06
-5.23140015268e-05
-0.0127475176784
-0.00011620031717
0.20419973786
-0.00208878848536
0.00176076796515
-0.203755517178
0.204238106018
-6.57550489813e-05
-0.000480707365553
0.0004434962869
-6.80929668183e-05
0.204336797679
-0.0003223507528
0.000292166731084
-4.9589081528e-05
0.204263669785
-0.00215843274234
0.00178127845263
-0.203952780527
0.204336218346
-0.000171700962594
-0.000592925754971
0.000474515736947
-0.000133991605011
0.204538385362
-0.000412057295583
0.000276109071024
1.58223840211e-05
0.000117089308823
0.000145764171686
-0.00229309803688
0.204298698304
0.00185000651039
-0.204214461187
3.0831143438e-05
-0.000172712521214
-0.000165275817519
-0.000197430071303
-0.00022670319865
0.204570113304
-0.000438066082509
0.000434993358502
0.0512934456953
2.00396377793e-05
-8.55250114626e-06
1.26154599598e-05
-2.91837677076e-06
-0.000682228042769
-0.0512314801104
0.000614882958358
0.0512996656352
2.86670811412e-05
-4.00291758891e-05
-3.28841117879e-05
-5.76186532359e-05
-4.68420972149e-05
-8.55597699293e-05
-0.00399621603021
2.01807439315e-05
-0.020369373043
1.90520267061e-05
3.48695082179e-05
2.03343625342e-05
4.06740311303e-05
0.00418914462298
0.00925761084737
0.010443766641
0.0106932360968
-0.0280943664316
-0.00102237246614
0.0653403112002
0.0205849093174
0.00800412569832
-0.000145755796767
0.000708141770472
-0.000887795049372
0.000221153815919
-0.00404099006735
0.0298808201632
-0.0108104806079
0.000532263414328
3.62414609072e-05
3.88937511525e-05
2.78395214288e-05
4.93828396822e-05
0.0513331999879
-0.000607325284613
5.60735087895e-05
6.75042650688e-05
5.23156704844e-05
6.1953520496e-05
0.0512413565552
0.000414877801936
-0.0512160816431
3.77567209292e-06
1.09347045103e-05
0.0117601670885
-2.95121152354e-05
4.23755047851e-05
-0.0117877412088
2.52827848304e-05
-4.16870962968e-05
-0.0117346636394
-2.46737931684e-05
4.25459389167e-05
0.0117332523961
8.55705798903e-05
0.012789353512
-0.000127476181743
9.73457186535e-05
-0.0127887242821
1.77578443926e-05
-5.39171567998e-05
-5.15210071077e-05
-4.38040949477e-05
-6.12001267912e-05
0.051390271663
-6.31865434657e-05
0.0512738022687
-6.22460456158e-05
-9.45358779402e-05
-7.05555052263e-05
-8.65407576069e-05
4.2216727003e-05
-9.21697718301e-05
-0.000100886831151
-8.45450135297e-05
-8.88936031086e-05
0.0513918544759
3.93208660567e-05
2.81907307655e-07
-7.96620372562e-06
-3.95969033514e-05
0.0127739930347
-2.38752130748e-05
4.81214635193e-05
-0.0116910104123
-6.24112595402e-05
0.0116540985057
7.50588445158e-05
-1.14685278697e-07
-7.31047303538e-05
0.0127679487356
-0.0127845633056
-0.000126506359911
0.0128111358875
3.34607847008e-06
4.48146078994e-06
-0.0136387613019
-2.06639662478e-05
-1.35898940031e-05
-1.79956135021e-05
0.000615366347702
0.00407127314369
-0.00133625075622
0.000334574159403
4.7567663207e-05
4.48842856998e-05
2.67848344344e-05
2.387607196e-05
-0.00660251358716
0.00330774948731
0.00243965961531
-0.0120713164486
-0.00314998162996
0.00545916084534
0.0131230146619
0.00551906198176
-0.00265349970281
-0.0110543722186
-0.000592850615922
1.18716514488e-05
-1.47497621431e-06
3.73912565296e-06
0.00144142544914
0.00348285616671
-0.00832576277509
0.0083810659366
0.00907861331312
7.22490487353e-05
0.0127795796036
-8.41608349252e-05
-0.0127770632917
-0.0127707105628
5.58064744337e-05
-6.56813400682e-05
0.0127738563163
5.74571767323e-05
8.50185981343e-05
-6.4300138804e-05
0.0117788936158
-6.25853262995e-05
-5.99612049985e-05
0.0117870272005
-0.0117792140827
9.97557425959e-05
-0.0127672430557
6.18306046463e-05
0.0117914789333
0.000109318025874
0.0127834296918
-7.69357796605e-05
0.0127709611581
5.2519910652e-05
-6.26202949208e-05
5.38457506134e-05
5.78995280517e-05
-0.0127817855041
0.0127846323916
-6.78561945455e-05
8.90320481375e-05
-6.13516607117e-05
-6.48891656668e-05
-4.42806525318e-05
-0.0117980600493
0.011802753469
0.000117627054246
0.0127727477224
4.93268281394e-05
0.000117000026264
-7.35503254391e-05
-0.012767236783
2.0554024926e-05
-4.10548063092e-05
0.0127693304784
2.87004220397e-05
4.94052629509e-05
0.0127796943649
-5.9957167017e-05
7.5304304237e-05
-2.48538187831e-05
0.0118201421484
-4.04502251171e-05
-3.59963346178e-05
0.0118121201093
0.000109694262765
3.99743042314e-05
0.0118106155654
0.000101141751813
0.0127813378837
-5.29727004438e-05
-4.00663836369e-06
-0.0127770139087
0.0127756219775
-3.41144685604e-05
3.41005032973e-05
-0.0118120984144
0.0117974259506
-2.35313392193e-06
-0.0118085798468
5.41277334611e-05
0.011790652914
9.9868408486e-06
-2.82550057415e-05
1.47156887417e-05
5.92025859894e-05
-1.55263941855e-05
-2.58439541067e-05
7.73421990054e-05
-4.23627645508e-05
-7.04776008755e-05
-0.0127381911829
0.0127497579383
1.03795017026e-05
7.08698171013e-05
-0.0118191639493
0.0117976994466
-0.0118078492585
0.0117777185669
7.54008759495e-05
1.14064296373e-05
-7.39529307745e-06
-0.0127552398872
2.48003423033e-05
-8.81255256178e-05
-0.0118124603303
9.47069156386e-05
-0.0127437820519
1.52717608418e-05
-0.0118135132463
-0.0028777796981
0.00494873465651
-6.89228361441e-05
-7.03178365012e-05
-5.16759597724e-05
-4.88245462849e-05
-0.00800993006205
0.00745190728276
-0.00127335563319
-0.00610713302349
-0.00672338808413
0.00984233331615
0.00936758488067
-0.0102923903765
-0.00125376110915
-1.58779901646e-05
-1.21039147936e-05
-3.14312028375e-05
0.00390061604014
-0.00282608368301
0.0105348006622
-0.00226342622297
-1.44511329063e-05
-4.64203178412e-05
-3.74395440094e-05
-0.0112317480305
0.00827491956631
-0.0102516116644
0.000550649406951
0.0131895210344
0.0057033337938
0.000707488345884
-0.00862974457184
0.00088090897771
-0.0114751340485
5.75885493119e-05
6.45385987086e-05
7.53879729777e-05
6.6711881602e-05
-0.000268407420839
-0.00306209897636
-0.00358495078645
0.00423706012992
-0.00258652959384
-0.0024031882202
0.00140939432583
0.00620185962314
7.17550853392e-05
7.36756469238e-05
5.00796722984e-05
5.62542917616e-05
-0.0154203365132
-0.00391856551577
-0.00185622060468
-0.0040330287293
0.00283484488671
0.000754826698574
2.02916688183e-05
4.75147137065e-05
4.06884595488e-05
-0.0200947918454
0.00504015476302
-0.00201383065957
-0.00145421622
-0.000166995546807
-0.0128131278682
3.40070375634e-05
0.0128100719176
0.000156079238564
0.0128183686379
0.000169453555305
-0.000174469930656
-0.012811009451
-1.60037761285e-05
-2.45511572525e-05
0.0117438948679
4.09237909216e-05
2.4899208025e-06
0.0117517026393
-0.0117798705505
-1.59344421457e-05
0.0128192412695
-0.000171347819253
-0.0128048083796
0.000160618317376
0.0117375554941
-7.83788589387e-06
-0.000162019840634
0.0128117706867
4.65465360358e-05
0.000149969618266
-0.0128260629796
0.000152446616953
-0.000156003677769
0.0128267902564
-2.3691537154e-05
-2.50855051509e-05
4.35139734928e-05
-6.22216166349e-05
-0.0117304120823
-7.41696864046e-06
0.0117289249127
-0.000164825397229
0.000138194800479
0.0128130825474
-8.83510975882e-06
0.0117452804192
-2.20525783613e-05
4.51203038698e-05
-0.0117516816609
-9.62476201106e-05
-2.43088031993e-05
0.011745312085
5.02268674294e-05
-0.000115882557723
0.0127894156849
8.69791876613e-05
0.0128000274692
7.51158079544e-05
-0.0128004542153
-8.33075884246e-05
-0.0117394137398
0.0117392995945
0.0128009083412
-0.0117440357778
-1.78462562895e-05
0.0127795002215
-2.691561729e-05
1.07389915621e-05
0.0117704597302
1.74329987357e-05
0.011764963341
3.17358198266e-05
-3.68530312104e-06
-6.03995299354e-05
0.0127833692865
-2.96579095821e-06
3.34417260907e-05
-1.39489550195e-05
0.0117291644854
4.21693413211e-05
0.0127864505704
-2.40129195453e-05
0.0117254613542
5.84981013543e-06
-7.27342758687e-06
0.0128028955157
-6.49558970934e-05
-1.21111162e-06
-0.0128019312521
1.16422235262e-05
0.0128167256443
-2.98201021163e-05
3.90874133425e-05
-3.76716534223e-05
5.70438716967e-05
7.036764974e-05
-0.0116812241279
-4.49730349808e-05
0.0116409478828
-2.73802238059e-05
3.98815739209e-06
0.0128197596393
-1.77271615859e-05
-0.0127640394273
-0.000121798568544
4.04890562344e-06
2.75602787833e-06
-9.09781835693e-05
6.22890821131e-06
4.38925786455e-05
0.0117700834351
0.011753251163
4.19420429977e-05
-1.16612012061e-05
0.0117113144235
7.08133829702e-06
-0.000103021458045
0.0127857142831
0.0117280295937
0.0116715924585
2.14452170843e-05
-3.61316183351e-05
0.000130243455811
5.54597034419e-05
0.0116296505146
-6.9969496193e-05
-2.47414207234e-07
0.012834688968
6.17564738238e-06
0.0128088558857
-0.000105319613812
0.000103424106101
-0.0116826752985
0.0116398962656
0.0128271956057
-0.000163226184183
-0.000201764950702
-0.000149263486725
-0.000218995157832
0.20511258069
-0.000145325148624
0.000202145117715
3.93134173348e-05
-4.98734015389e-05
-4.4799924747e-05
-4.46110842417e-05
-5.20922017605e-05
-7.69202310139e-05
0.0514560426994
3.46217612977e-05
-0.00706793100308
0.000734987762567
3.08645064509e-05
4.89238569122e-05
4.5003972551e-05
0.00451353144062
-0.018434655916
0.00152744803422
0.00109413213488
0.00174934355363
0.00708044495883
0.0258893926567
0.00188273975322
0.00536169332164
5.61834050543e-05
6.49538912631e-05
5.91254188305e-05
6.07299732408e-05
-0.000142215524231
-0.000475920963263
0.051249297934
4.79018124443e-05
-9.08597209091e-05
-2.64889094453e-05
0.0117585665836
0.0514791693171
-6.5663708474e-05
-8.6890502704e-05
-7.39057018121e-05
-7.73893718583e-05
5.39739577989e-05
0.051481493161
-4.56884945362e-05
-3.30084160692e-05
-3.01493932179e-05
-5.36067107379e-05
-4.52272925172e-05
5.59426062889e-05
4.79431936444e-05
0.0116258129829
-8.34668039433e-05
9.84429072102e-05
-7.79163573945e-05
0.000118869115706
8.24937201691e-05
0.0115962055697
-9.00312915606e-05
0.0115463695328
-1.93764344093e-05
2.23912228657e-05
0.00014085887304
-0.0115534180937
-0.000136825835269
0.0514414642391
-9.19462320494e-06
-1.99741019623e-05
-2.06726836616e-05
-3.78724809733e-06
8.3645535076e-05
-6.90191373066e-05
7.89953783782e-05
-3.04532233714e-06
7.1021119645e-06
-3.90569260728e-06
5.82981563461e-06
5.58021616404e-05
-5.33389327167e-05
0.0513701544939
6.28568944024e-05
-8.31025690856e-06
6.71072715208e-06
0.000158144000514
0.0115402655524
-0.000150391543718
1.568594004e-05
-2.23571827564e-05
0.00020078085128
-0.0115466626721
0.0115507043079
-0.000198143702589
-3.35358009201e-05
-3.88602380147e-05
-2.69699354235e-05
0.00661948555288
-0.0120370167797
-0.00183318305221
-0.0166922045038
0.00104979742187
5.21459834228e-05
6.31745111103e-05
4.15093678406e-05
-0.00708090693856
0.000573999406729
-0.015782321094
2.41227231337e-05
3.98413413754e-05
3.62663750831e-05
0.00652377453292
-0.00812725582994
0.00179478546415
-0.00245509947984
0.000907274253383
-0.000696431442811
0.00059878621982
9.03703836655e-05
0.00277436993511
-0.00122361978928
-0.0125145191988
1.45894147429e-05
-3.50544123556e-06
3.36574957829e-06
0.0021495689242
0.000313829442728
-0.00575391877025
-1.39152169878e-06
-1.39966712513e-05
-1.86006095024e-06
-0.00291797502667
-9.83149255855e-05
-0.00833980459744
-0.00112569903868
-0.0128007413283
6.98340141456e-05
0.000101012643162
-0.000117803663356
0.0128038851064
-0.000110568335041
0.0127899418944
-7.73770061409e-05
0.0117498247056
6.78210365224e-06
-2.69267950167e-05
-8.09840175022e-05
0.011765019016
-0.000128643666472
7.08146380841e-06
0.011758712118
0.0127937454514
-2.42583162738e-05
-0.0128412790028
-5.67632979871e-05
1.64141137337e-05
0.0128560076616
0.0128355474414
2.13748313922e-05
-3.70231036355e-05
4.41417913323e-05
-0.000110050119578
0.000124101616996
0.0115984933428
6.51492719097e-05
0.0116124796247
-7.12359180871e-05
-3.85914765121e-05
0.0128494602811
1.2877283631e-05
-9.65830358782e-05
0.0115872671228
-0.0128527566799
-7.21458153657e-05
1.19942318471e-05
0.0128637013821
-4.65884577608e-06
0.0128614636115
9.84664971641e-06
9.12372850154e-05
0.0116121075396
0.000103946322293
9.0496712426e-05
0.0115732588068
-0.000108312176918
0.0115888367351
0.0128698699788
1.66024025564e-05
0.0128709693915
-5.2354685246e-05
2.63591109972e-05
-2.69706209638e-05
-2.83821409349e-05
-0.012876445668
0.0128680214828
2.61328376657e-05
2.38657803144e-05
-0.0115710032617
0.0115642961658
0.000147854147052
0.000121802745025
5.86517499717e-05
-0.000120885324725
0.0128665436314
-3.01958445537e-05
0.00012362536697
2.47558835842e-05
-0.0128602783267
2.3331542425e-06
3.08816607403e-05
0.0128503677964
-3.25011898172e-05
-3.16225575601e-05
0.012857741366
2.86878409342e-05
1.21881119758e-05
0.0115586978591
0.000166099646147
0.000173559804199
-1.33129077701e-05
0.0115414325062
-0.000164920789803
-3.38473032585e-05
0.0115554932785
0.000182419448696
0.0128436745111
2.78738533253e-05
0.012839539594
8.03685940866e-06
2.92139814302e-05
-2.94642354999e-05
-2.46779192877e-05
-0.0128299429907
0.0128189743989
2.04062905755e-05
-3.77770636414e-06
-0.0115545414759
0.000204036709152
0.0115536781556
0.000188183400502
-2.42327200247e-05
-0.000183206230042
-2.39569458104e-05
0.0128310918995
0.000195316067203
2.45752589391e-05
-0.000438335360717
-0.0496365026853
0.0495027919647
0.00055745339617
5.01051297972e-06
1.0040863444e-05
2.07973667911e-05
-1.41705495346e-06
-1.95123341131e-05
-0.000643812569221
0.0500990157185
-5.78757604099e-05
-5.39112452739e-05
-5.38999422043e-05
-5.83183604911e-05
0.000155713017797
-0.050059284877
0.000672337069555
-0.00110360860549
-0.0501857724153
0.0503060419205
0.000991225571523
-7.0221346909e-05
-5.25873803483e-05
-6.86635852808e-05
-5.61352537696e-05
0.000239735279923
-0.000865142270292
-2.97912575394e-05
-2.38135731056e-05
-3.06075090338e-05
-2.22762499883e-05
0.000156351284114
0.0505349324095
0.000733692020846
-0.0504533455967
-5.2962621078e-05
-0.00820751781363
-0.00585998281565
0.0109251809229
0.00886797130847
-0.0055230852789
-5.64341572056e-05
-3.22356500451e-05
-3.27323308277e-05
-5.53715525373e-05
-0.0152814914301
0.0176060474546
0.00802749131113
-0.00258989384767
-4.64972916938e-05
-1.93941597933e-05
2.13686625311e-06
-0.00760640871143
4.15846104649e-05
-0.00639192259143
-0.00707642230933
-0.001037605511
4.01417388324e-05
5.8279583826e-05
5.70946741875e-05
0.011791486583
0.00251738970636
6.96197165235e-05
-0.00616473692026
0.00279867707079
0.000341201208398
0.00272812247196
-1.35399832217e-05
8.42689333816e-05
7.42684407319e-05
8.26424836824e-05
4.22909153057e-05
0.000243853993611
4.52933805954e-05
3.69037126035e-05
4.26200985611e-05
-0.0107253038176
-0.00171140401457
-0.0010106026124
0.0130363020887
-0.00789209877722
-0.0205168429509
0.00869674095141
0.00795284672344
0.0075449723133
0.00757421164187
0.00158564003183
0.0401601629585
-0.0481666862258
0.00229434770734
-0.00652174727892
0.00218455971161
-0.00403197957541
-0.018421381064
0.0659954129796
0.0241992695142
-0.0207021443085
0.00644472794136
0.00603408054934
0.00385062160478
0.00319785214604
-0.00206809352376
-0.0209420891746
0.00236520996036
-0.00164390920937
0.000569998909369
-0.00253520738867
0.0272513433134
0.038748739696
0.00440380253107
0.00372360579213
0.00403261516324
-0.00680288590716
-0.00516096819556
0.00448118209979
0.00187632547466
0.000719607714802
0.0022944544005
0.00145292928204
0.0657542590998
-0.00581564256183
8.33640700824e-05
2.82330279362e-05
5.17000682938e-05
4.04825282695e-05
3.9705283086e-05
0.0494040072148
-6.51601394135e-05
2.07343415687e-05
-0.049602909737
0.049424619156
0.00025197382922
1.60073225765e-05
1.90140662696e-05
2.5458056686e-05
6.36228157084e-06
-3.56641539722e-05
-0.0496242524308
7.98503575783e-05
-7.65278173396e-05
-0.0117651634581
0.000116805070924
0.0117443932612
-9.94270264726e-05
0.0117858918337
0.000111450930389
4.85658457978e-05
-1.73067358881e-05
-0.000118680341
-0.0118098267053
7.17227473042e-05
3.94676966127e-05
5.52405801581e-05
6.08748518659e-05
-0.000198040241794
0.0123216108138
0.0122291586069
0.0122478927443
0.0123112797778
-0.000152916507349
0.000127183369007
5.9614320348e-05
-3.38586188266e-05
-0.000138771610508
0.0117714432526
0.000365829111471
-1.71229807965e-05
-1.40192917224e-06
-1.11013238421e-05
-1.47849611039e-05
1.56019136182e-05
-0.0497215145012
0.0498568137886
-3.91496958378e-05
-4.69455379798e-05
-3.58328036212e-05
-4.66911708963e-05
4.85838803466e-05
-0.0498489735042
0.000478047159499
0.0117951577403
4.54482339554e-05
-2.39605457973e-06
-0.0118172907258
9.0502507138e-05
0.0118111643414
-2.07143579917e-05
7.12602930815e-05
-4.47449018895e-05
-0.011834177739
1.70707977001e-05
0.000811851621991
2.20168218023e-05
4.02001258489e-05
3.60030989925e-05
2.00575651663e-05
0.0493529403709
-0.000192643049321
-0.00014483675168
-0.000188205291249
-0.00014976859722
-4.2961794686e-05
-2.12567114253e-05
-2.60758507222e-05
-1.45273205461e-05
0.0497964313916
-2.73058861923e-05
-4.03113739081e-05
-2.85658847661e-05
-4.12651181067e-05
0.000111692628015
0.049855650159
0.000837544331824
-1.39472495245e-05
-3.60173983669e-05
-1.99474896519e-05
-2.89091691286e-05
1.40098133261e-05
-1.57729676311e-05
0.0117801014783
0.000105199027113
0.0117911614405
6.09239143319e-05
-4.07079475123e-05
-0.0117812169774
0.00015099939135
-0.000181089377622
2.44569746408e-05
-1.88413873837e-05
5.9297783906e-05
-5.60324419669e-05
0.0118023217186
0.0118129735403
5.18856335129e-05
-3.39138659962e-05
6.00715632913e-05
-8.67810655085e-05
-0.0118041346977
0.0499632094387
-4.0456392903e-05
-3.95970109769e-05
-2.5266994866e-05
-5.68794456289e-05
-0.0011214719702
7.27228217838e-05
0.00136351378221
-4.95846762605e-05
-8.65745462788e-05
-6.37005269531e-05
-7.61791785264e-05
0.050496638579
-6.50458420691e-06
-0.00161431651953
-4.38751847673e-05
0.0118102459258
0.000173111231386
-0.00020364756534
-8.45132639188e-05
8.13522612566e-05
-0.0118780628198
0.000249570437477
0.0119103359004
-0.000278592423537
6.97756926248e-05
-5.3352734101e-05
6.01025723599e-05
-0.000107712035847
0.0118441180175
0.000133472254169
-0.000124187798976
0.000137745328626
-0.000175052082684
-0.011909952937
0.0119380343665
0.000830072870421
-4.6301062327e-05
-4.86335614541e-05
-4.28890225267e-05
-5.22953184838e-05
0.000111008777112
0.0503518615557
-3.50550559639e-05
-3.69204013523e-05
-3.87234573275e-05
-3.34526051814e-05
0.000125775350889
-0.0502714790935
0.000768104992236
6.34259137222e-05
0.0117937792902
1.0541537322e-05
-0.0118015621979
0.0118090719483
-5.3929622253e-05
6.12804951426e-05
-0.0117989069925
3.42378893009e-05
0.0117982797023
-4.6603215441e-05
2.82339108202e-05
-1.6491648623e-05
-0.011779440625
1.60416478146e-05
0.00117916705936
-7.69573851426e-05
-9.48206640486e-05
-7.44175192231e-05
-9.21388865951e-05
0.0505618299785
0.000267068104909
0.0504546154896
-4.87614849185e-05
-3.68118050529e-05
-3.78727637919e-05
-4.57652063182e-05
0.000192614754111
-5.13929295718e-05
-6.04189158408e-05
-5.07425808002e-05
-6.6047475369e-05
0.0506280887207
0.000998396991944
0.000236049626081
5.71957328196e-05
0.0118409869939
5.03097549545e-05
-0.000102428767129
0.000113028274195
-0.0119075929654
9.73298266467e-05
0.0119331524815
2.12151195101e-05
-5.17152830984e-05
2.32456091628e-05
-2.6929387868e-05
0.0118324388772
2.88495425446e-05
-5.73439028042e-05
4.39967251032e-05
-4.34042224534e-05
-0.0118958059641
0.0119237164227
8.71828245182e-06
0.0118297241349
2.22486857787e-05
-0.0117971761995
3.63547902582e-05
-0.0118918466491
0.0119164273761
-4.91590547134e-05
1.70341485787e-05
0.00615280266239
-7.17255568599e-05
-7.19240435013e-05
-6.15311512496e-05
0.01122704877
-0.0028446516785
-0.00576157923512
-0.00848924016451
0.00902432823021
0.00803697030546
-6.61643519366e-05
-4.42082835439e-05
-5.65692709966e-05
-0.00354756347837
-0.00714675731036
-0.00734623871055
-7.50783701656e-05
-6.42972442372e-05
-8.56956902699e-05
-0.00597974485783
0.0144257954708
-0.0101731089632
-0.000456513369934
0.00853866440437
-0.00167162070257
0.0124620397663
0.00301327730547
-0.00604714413763
0.00782193768829
-0.00703459041278
-0.00814560827267
-0.00432846061932
0.0122705121183
-0.00296342466686
-0.00183357822009
0.00723236151962
-0.00575683036739
-0.00449187220104
0.00585548430116
0.000608868463715
-0.00251312355174
-0.00953903042792
-0.000707885352556
0.000482118013597
-0.00514333547782
-0.00525448144426
0.00517694450092
-0.00225170419171
-0.00893977251958
-0.00046868587168
0.00829013503972
-3.7035061845e-05
-2.00405684523e-05
-1.7199527905e-05
-0.00556771903944
-0.000425378056598
-0.0019921118407
-9.29476589584e-08
2.021329316e-05
5.52663717507e-06
0.00681223117282
-0.00233515630516
0.00575821732074
0.00894390861923
-0.00513658849853
-5.75170772723e-05
-3.16402898508e-05
-3.48277435134e-05
-0.0079780877867
0.00294391964867
-0.0024817189681
-4.72435376153e-06
1.7297807863e-05
-1.27889301679e-05
-0.00184659303626
0.00703191576192
0.00664518599885
4.5881156957e-07
2.65150553176e-05
-3.6835814809e-06
-0.00257379148154
-0.00568873296897
0.00468594145123
-0.00453980359054
0.000989035847985
-0.00073612614229
-0.00623417047278
0.00260649766814
0.00171916356788
-0.00562178073111
0.00594424956461
0.000808152589395
3.14827553782e-05
0.000110638890271
5.22679668161e-05
0.0163218872707
-0.0057435885055
0.00886288727806
-0.000167304774807
2.89374554094e-05
7.29517128176e-05
4.27022830042e-05
0.00104899364622
0.0049341284632
0.000116585992058
0.000103788241911
8.57671415503e-05
0.00839434996371
0.00130094245789
-0.00584025482769
-0.000700353245222
-0.00116563433363
0.00316259157107
-0.00688369266651
-0.00224272359416
0.00324695956586
0.00273440410207
-0.000592953497308
4.97620404014e-05
6.37766810482e-05
5.93151930123e-05
-0.00110014317354
-0.0093720772104
5.79984138184e-05
4.80374126399e-05
5.5958101862e-05
0.0133913405286
-0.000393459464794
0.00357464064992
-0.00170451707507
-0.00475734009776
-0.00463421968781
0.00572018405062
0.00524147118863
-0.00295429112919
-0.00398211623099
0.00245025241147
0.000776588778212
9.82679331856e-05
8.69088596011e-05
8.8536676998e-05
0.0016729685516
-0.00611093745489
-0.000525623469394
6.34352959548e-05
5.3515502307e-05
6.80438284412e-05
0.000120674666297
7.04070668675e-05
5.69997704586e-05
7.21770255449e-05
-0.00418134080166
0.00014277678199
0.00663161918349
-0.00594087629859
-0.00355355128834
0.00945504973267
0.00659837844573
-0.00553808697876
0.00976987792726
-0.00514358215454
0.0124385656243
3.57796698511e-05
6.27555127205e-06
4.58708828443e-06
-0.0124569626771
-1.70204628047e-06
-0.0124313683596
0.0123991142682
9.17339933647e-06
0.000103262235156
-5.42470531591e-05
-9.23391314775e-05
-0.011793599969
-5.80205147482e-05
-0.0117750804639
0.000125628444493
0.0117523143344
1.05307108313e-05
0.0124088980319
0.000108965880404
-0.0118065266297
1.22444368709e-05
-0.0124518339117
0.0124473714703
1.50754632547e-05
1.77448126656e-05
-0.0124595613459
-2.99454628144e-05
-0.012457784187
0.012435676998
5.38335564326e-05
-3.46128513704e-05
-0.0117918379428
0.0117672988883
-3.15294188969e-06
-0.000101679465508
9.27365016218e-05
-0.0118419245403
0.012418889137
3.06177737023e-05
-0.0124701177328
-0.0118233290432
-0.0123959057177
6.30803821793e-05
7.67957383061e-05
-3.79418415775e-05
0.0123657250699
-4.10348503609e-05
0.0124149408638
6.73245610796e-05
-5.89709845272e-05
0.0117577506356
-0.000145593031245
-5.23895626032e-05
-0.000153504538704
0.000144931096111
0.0117676558783
-2.17904625485e-05
9.42240785998e-05
0.012392267264
-0.000156884490227
0.011752045392
-3.89013894022e-05
0.0124911030166
-2.78704195862e-05
5.41034741118e-05
-0.0124955560463
-0.0124739983869
6.16741739094e-05
0.0124623209077
1.06547108617e-05
7.57760457931e-05
-0.0118480938594
2.26789683758e-05
-0.0118327964804
6.98310839941e-05
0.0118106129833
-0.01248276648
7.63400412251e-05
0.0124842500286
6.09599557204e-05
-0.0118631322699
0.0125076441848
6.96176992623e-05
-5.58427757318e-05
-0.0125064688128
-9.00772475689e-05
-0.0125232347654
0.0125248037239
0.000112839112897
4.72726122838e-05
-0.0118327318153
0.0118102148039
7.43236862243e-05
-3.99116170961e-05
-0.0118643641696
1.59402191904e-05
0.0125052852475
-0.0125202443092
9.42050316533e-05
-0.0118621144439
-0.000105980345097
-0.012469312529
1.54858544296e-06
0.0124554499666
0.000123147114873
0.0124432038708
8.07259208859e-05
-2.5164529663e-05
0.000119281696938
0.0117746923194
3.46378046168e-06
0.0117965549663
8.34305310178e-05
0.0124270278583
9.75387714198e-05
0.0117899319767
9.42913095593e-05
-0.000136494717631
0.0124465061592
1.14372798712e-05
0.00015586112497
-0.012408805176
0.000170676478576
0.0123951355591
-0.000157516796783
-3.74574512101e-05
0.000135069073631
-0.000161895158676
-7.46479280015e-06
-0.0117971743915
0.00011973183897
0.0118038774093
-0.000119840016889
0.000189773400428
0.0124398562785
0.000104097819767
-0.0124966024212
0.000133943265628
-2.95503097967e-05
0.0124879762888
-0.00011168793893
0.0125200651884
0.000135418124098
3.42393897807e-05
0.0117982611335
5.94280779675e-05
-6.31909751245e-05
0.0117926241051
3.08367797331e-05
0.0125152975685
0.00015677860847
0.0117868298946
0.0124816363917
0.000164641533436
-1.64582478048e-05
-0.000195273715071
-0.0125145976882
0.0125184890476
0.000215397071592
2.59491650769e-05
-0.0117970340193
0.0118045036325
5.02280678588e-05
-7.35325009669e-05
3.82308626309e-05
0.0124821155809
0.000186609301219
-0.000253122793934
-0.0124344938374
-1.59828006468e-05
0.0124451728046
0.000271881305091
-1.35080504588e-05
0.0123840421607
0.000210938974302
-4.68938350656e-05
-0.000196945879163
-2.68907040637e-05
0.000191319325949
0.0118216372621
-0.000222149235303
-6.5196175022e-06
0.0118255989693
0.000138575972069
0.0123947418052
-4.30134483621e-05
-0.000247870153433
0.000231728861506
-2.21493929338e-05
0.0118453954767
0.000157673324492
-0.000296078313785
-4.46375418157e-05
0.0124905630504
0.000316019875315
-2.08100420477e-05
-0.0124460657631
0.000328387767623
0.0125344912525
-0.00032794457925
-7.63765165259e-06
3.33087212451e-06
0.000223048765482
-0.000251630272678
-0.0118890478522
0.000105291570586
0.00022097882398
0.0119235021007
-0.000293747985988
-5.03287344733e-05
0.000186945280366
0.000351481392536
0.0125623416167
1.0629902285e-05
-0.0124815124193
0.000272104475883
-5.64785667616e-05
0.0124972620886
-0.00023457126355
0.0125211566641
0.00025243959217
2.75250824712e-05
0.011836329279
8.5901946851e-05
-0.00012279567018
0.0118685764652
8.55753265718e-05
0.0125349390922
0.000287410621425
0.0118570525554
0.000310858864865
-7.79489314218e-05
0.0125308259851
-0.012562257865
-0.000347030729558
0.00035266617358
0.0126079710531
-0.0119024373567
0.000130158609843
0.0119345653364
0.00010263180617
-0.000149494485404
0.000109267145746
0.000322610593814
0.0125895422657
-0.000167781279534
-0.012564143229
-6.97416493228e-05
0.0125636933124
0.000180112371625
0.0125423104751
0.000147710281204
-0.0125450041422
6.29914490675e-05
1.51908143024e-05
0.0117865239927
7.27610186135e-05
0.0117864260782
-0.0117941646731
4.02714170907e-06
0.0125405352534
-0.0125636556493
0.000161822668185
0.0117830276107
6.03691084943e-06
-0.000195660861883
0.0125703704431
-6.19472644134e-05
0.00020467401716
-0.0125435526795
0.00022125583832
0.0125504257556
5.48282757664e-05
2.07292181681e-05
6.50204031455e-05
-0.0117926739348
1.74953782284e-05
0.0118081914571
0.000226225436401
0.0125782798148
8.43515267306e-06
0.0125911601818
0.000204509022574
-4.14918543348e-05
-0.012584490207
-0.000221692996008
-0.0126090336603
0.0126158729928
0.00020616052677
4.27033953235e-05
-0.011786550541
0.0118028181114
2.98682862029e-05
-1.16539467112e-05