/*--------------------------------*- C++ -*----------------------------------*\
| =========                 |                                                 |
| \\      /  F ield         | OpenFOAM: The Open Source CFD Toolbox           |
|  \\    /   O peration     | Version:  v1906                                 |
|   \\  /    A nd           | Web:      www.OpenFOAM.com                      |
|    \\/     M anipulation  |                                                 |
\*---------------------------------------------------------------------------*/
FoamFile
{
    version     2.0;
    format      ascii;
    class       volVectorField;
    location    "13";
    object      U;
}
// * * * * * * * * * * * * * * * * * * * * * * * * * * * * * * * * * * * * * //

dimensions      [0 1 -1 0 0 0 0];


internalField   nonuniform List<vector> 
28582
(
(0.815237536186 0.00445256049408 -0.0004588802051)
(0.816280841506 0.00350136462456 -0.00067145544405)
(0.815492755835 0.00463708425665 0.000707283343906)
(0.816592019536 0.00336219371008 5.08016292944e-05)
(0.815036661838 0.00474886017116 2.51985911129e-06)
(0.815977280642 0.0032818315207 -0.000693665067326)
(0.818576477301 0.00513362964188 0.00349275856374)
(0.819782025222 0.00311359868979 5.81472455524e-05)
(-0.147941570448 0.0347867627707 -5.1627484363e-05)
(-0.318985365146 -0.0491174630755 -0.0041763457189)
(-0.00591182740766 0.0300884947634 -0.251001616788)
(0.819266563601 0.00403661252272 0.00266985324848)
(0.752936662815 0.00426721227436 0.00350588450613)
(0.755456845257 0.00512903270001 0.0031149932112)
(0.819663760351 0.0016664385448 -0.00245422282024)
(0.818581575374 0.00110622502245 -0.00250253757841)
(0.756165946902 0.00455756189045 0.00297490327026)
(0.817017892581 0.000816218737416 -0.00134831653021)
(0.816325180745 0.00029982342263 -0.00351052857903)
(0.814851270617 0.00772866568462 -0.000647072005808)
(0.817708757436 0.00181580289666 -0.000497986302671)
(0.817656591074 0.00111690654036 -0.00080946583887)
(0.815297759452 0.00791406744609 -0.000229898910499)
(0.818074554325 0.00210464966695 1.06731696177e-05)
(0.817944164962 0.00116138705939 0.000391637942951)
(0.816370899728 0.00831257940132 -8.24312113258e-05)
(0.818316417623 0.00162662507987 -0.00157423321675)
(0.819989549229 0.0102087238215 0.00055317803051)
(0.820334700304 0.000597596070894 -0.00351342489164)
(-0.328008048319 -0.078920052024 -0.00335027797811)
(0.07318572082 0.313683402704 -0.375054694568)
(-0.093777030481 -0.216187847615 -0.10420008644)
(0.821096558523 0.00906606917055 0.00299157937465)
(0.819770855823 0.00752631202601 0.00339950032127)
(0.753664015944 -0.00229026285636 -0.00103733806647)
(0.751049507942 -0.0021985611645 0.0018811825586)
(0.818599832392 0.00710341525216 0.00448181076298)
(0.821108787857 0.000372998267135 -0.00306696521823)
(0.819491297247 0.000481838303184 -0.00429895248128)
(0.821268517838 0.000257076316136 -0.00435437742636)
(0.817284497442 0.000210107410985 -0.00236754159577)
(0.74705998819 -0.00476451421934 -0.00164581304591)
(0.816898618412 -0.00015836889847 -0.00443608110508)
(0.819075876819 -4.06739944061e-05 -0.0078083227868)
(-0.177213035799 0.0396015507613 -0.00209337999061)
(-0.0580216780987 0.0361555282633 -0.00515881424059)
(-0.0628168114845 0.204109217742 0.0235463099964)
(-0.0586478225526 0.193577895825 -0.0166024840092)
(-0.264801425708 0.0112718150038 -0.0055964426789)
(-0.0998182013071 0.150637297647 -0.00391107157284)
(0.817804260049 0.00487679487546 0.00444918817611)
(0.817402884908 0.00382780631743 0.00353923135826)
(0.753410962994 0.00473154574063 0.00357947737268)
(0.753936561702 0.00578313763565 0.00343789179077)
(0.817158307547 0.00422387918028 0.00376060743346)
(0.75424090311 0.00624090327819 0.00331736278403)
(0.81802546985 0.00442079678063 0.00422100929077)
(0.81757144585 0.00363178420262 0.00310075411885)
(0.818180031899 0.00393043886621 0.00336062205561)
(0.75429871783 0.00494660415017 0.00366004629824)
(0.75549594597 0.00689298988027 0.0028181628512)
(0.817517781363 0.00333939511705 0.00277291947542)
(0.754749769193 0.00663847177124 0.00327264884246)
(0.818173321708 0.00422495678919 0.00386516598238)
(0.817310420179 0.00225509359646 0.00114190656809)
(0.818182037786 0.00341235382657 0.00291103136497)
(0.756446140705 0.00369129546305 0.00196205845808)
(0.755747487579 0.00650994958827 0.00272353359622)
(0.817480386543 0.00283009160536 0.00235826441625)
(0.756031469812 0.00605855543186 0.0021242639004)
(0.818100385313 0.00298036908661 0.00163581620656)
(0.817784003462 0.00163726562319 -0.000504067188769)
(0.756042762937 0.00105752772956 0.000141980248325)
(0.755692824341 0.00311091448873 -0.000216597250684)
(0.817091055296 0.00143286186932 0.000421676983044)
(0.756628713336 0.00277002337172 0.00130146698607)
(0.756252066885 0.00482162895883 0.00138027712063)
(0.817920670674 0.00226952829241 0.00105619216117)
(0.815820850508 0.000508887201541 -0.00448273886504)
(0.756460839253 0.00429419637448 -0.00172469434222)
(0.755323670756 0.00484881955995 -0.00270354994177)
(0.816204083078 0.000755495619253 -0.000888706069018)
(0.755859595265 0.00584801586138 -0.000397455480709)
(0.81560953968 0.000879216052961 -0.00168195453867)
(0.756415064305 0.00571416100032 0.000484869088255)
(-0.108613027862 -0.0499799310292 0.00256807349475)
(-0.127183488489 0.166473914192 -0.0744305483911)
(-0.166072189714 -0.0417769513182 0.00306855231379)
(-0.161347259196 -0.100166063668 0.00224027842062)
(-0.164064265627 0.0471986519771 -0.0495229417845)
(-0.146333236745 0.0508351398001 -0.074022711063)
(-0.150019344605 -0.0518448453264 -0.00605292805245)
(-0.0433595697783 0.0458162722312 0.0468220117604)
(-0.0329443582819 0.0474414987969 0.0161523698337)
(-0.226547142751 -0.112558580763 -0.00395790030091)
(-0.0826590412461 0.0281156003947 0.0622323273991)
(-0.324385710522 -0.0949812675368 -0.00253711525119)
(-0.0572033859806 0.022406550702 0.0379465436897)
(0.820094086597 0.0103270132574 0.00195169973973)
(0.820209104066 0.0109429600181 -0.00101268104778)
(0.752266733381 -0.00213484013425 0.000405375535049)
(0.753204145958 -0.00162001203917 -0.000349869075962)
(0.820511913083 0.0107722562504 0.00104899136323)
(0.81986571427 0.0104844693237 -0.000366295004352)
(0.751792425468 -0.00112787005215 0.00134692013969)
(0.819970275295 0.0100468225612 0.00257673905628)
(0.820872980033 0.009875161136 0.0026484697408)
(0.75149792809 -0.0022419501788 0.000813342936022)
(0.750904762948 -0.00112757361817 0.00299726252359)
(0.820671947805 0.0104166359521 0.00151408326931)
(0.819933221173 0.00944473631197 0.0038185961418)
(0.751117644521 -0.00119034202694 0.00215241980556)
(0.751907016979 0.00234424549951 0.00476758635602)
(0.75181524951 0.00262237179827 0.00558933820145)
(0.818489864235 0.00635464679919 0.00543625748207)
(0.81931985119 0.00883310014173 0.00404739292338)
(0.751441954227 0.000276252396253 0.00452415993786)
(0.819189965417 0.00815494429622 0.00490821132808)
(0.751529266529 0.000184356332218 0.00401676327261)
(0.817845358287 0.00102142431628 -0.00110324638633)
(0.754136715114 -0.000318017780217 -0.000805021560276)
(0.753979570303 0.00166064398708 -0.00178701234932)
(0.817978763079 -7.00988193018e-05 -0.00405000298067)
(0.752121034322 -0.00199274158923 -0.00127091416761)
(0.818040916306 0.000726802786731 -0.00248824361969)
(0.751401038503 3.5958096088e-05 -0.00270593099346)
(0.818845368416 0.000111163047504 -0.00410429367223)
(0.819423995054 0.00133237142734 -0.00370993572112)
(0.749319542636 -0.00337294597063 -0.00159975981484)
(0.746208167983 -0.00293909988909 -0.00311370445271)
(0.818539530191 0.00104759483404 -0.00273268238692)
(0.81993775988 0.000376679389309 -0.00484846462421)
(0.748960781213 -0.00139919282193 -0.00314523297402)
(0.817887479768 -5.72792259893e-05 -0.00780165058915)
(0.816622255098 0.000214328442657 -0.00536678513964)
(0.754381289107 0.0024652770793 -0.00329283715742)
(0.753551054372 0.0031478220466 -0.00425466206512)
(0.751075553008 0.000892187744737 -0.00563670737862)
(0.818012706555 -0.000397652650432 -0.00679708621606)
(0.752200982133 0.000613791463972 -0.00478086830253)
(0.748428072708 -0.00135373747022 -0.00615237116691)
(0.745277993499 -0.00358770261271 -0.00606476851022)
(0.820917131467 0.0001078200183 -0.00860657406586)
(0.819019063039 -0.000316635461073 -0.00669174402607)
(0.746190522715 -0.0030927089453 -0.00450911720486)
(0.820414457693 -3.54545088303e-05 -0.00722447486962)
(0.749049764217 -0.0011417841715 -0.00520951384366)
(0.819606896297 0.00061738643406 -0.00173703799299)
(0.822748164569 0.000811500877526 -0.00261322743077)
(-0.310799474649 -0.0982779076912 -0.00393084838689)
(0.0632461746002 -0.0489963993008 -0.187099838521)
(0.820011036454 0.00677500580842 0.00318633767456)
(0.752071474166 0.00297360339617 0.00558467238643)
(0.822908673172 0.000481277781412 -0.00328066039367)
(0.823370157123 0.000655562704188 -0.00195691788994)
(0.744775762904 -0.0062398878252 -0.00185279521862)
(0.743004991579 -0.00535654027918 -0.00609377948823)
(0.738929960399 -0.00888331800855 -0.00132673185456)
(0.823181882554 0.00111889192475 -0.00155241202279)
(0.822249737804 0.000925027079401 -0.00109798560274)
(0.738817666184 -0.00988887374434 -0.000302618508421)
(0.739329996373 -0.0130686582706 0.00138463927725)
(-0.148192132354 -0.0554262722529 -0.00155057140459)
(-0.257993973543 -0.135104030479 -0.00427218010158)
(-0.26511951618 -0.133608942324 -0.00205093743844)
(-0.000555535810141 0.0419073149459 0.0380347933406)
(-0.029614312425 0.00805273087933 0.0515851832671)
(0.000957642208049 -0.0154643321566 0.0314123644213)
(-0.236581217207 -0.0707678658897 -0.000934621881022)
(-0.165286379168 0.0129220376162 -0.000485996210924)
(0.81949933456 0.00712990437056 0.00426876637948)
(0.818596781815 0.00612659199457 0.00521685753941)
(0.751664459953 0.00031080508644 0.00451565543578)
(0.752827610093 0.00308456692207 0.00532517508398)
(0.819361221074 0.00778734155297 0.00462580877796)
(0.752426453644 0.000299856600872 0.00429774943601)
(0.818766294585 0.00560215454476 0.00471093457404)
(0.821999656705 0.00120843780561 -0.00396606731625)
(0.820555463854 0.00196097654476 -0.00347741273666)
(0.743074902037 -0.00795684420792 -0.00139818369306)
(0.744106564895 -0.00453189333444 -0.00311037176001)
(0.821880069783 0.00214276027353 -0.00350785568852)
(0.820894887839 0.00103738086072 -0.00427911221087)
(0.742178142923 -0.00637546784832 -0.00271633154185)
(0.822385010997 0.000695924484112 -0.00546070547573)
(0.821635576216 0.00035031495765 -0.00772523504063)
(0.743776483122 -0.00483664611308 -0.00422202775101)
(0.740617462571 -0.00664115127168 -0.00455241675636)
(0.821310308224 0.000372892457951 -0.00628696190105)
(0.741978002734 -0.00632483665663 -0.00302029121271)
(0.822977870723 0.000829030805816 -0.00659702298275)
(0.823077888574 0.00156504377186 -0.00411678991109)
(0.823488855701 0.00180020161143 -0.00240538412237)
(0.740112723313 -0.00915548056089 -0.00110124746872)
(0.739724906764 -0.00764542527233 -0.00345778546141)
(0.823459936744 0.0017628869904 -0.00240983660924)
(0.741005697332 -0.00776475449412 -0.00253145862396)
(0.823527248675 0.00162870187946 -0.00481951532289)
(0.822983637624 0.00193047482791 -0.000297156567171)
(0.823271046243 0.00195421988189 -0.00102372960416)
(0.739894562666 -0.0102992371194 -0.000524624305467)
(0.738835745054 -0.0109749173305 0.000750972204395)
(0.823383529511 0.00196686092312 -0.00147040991103)
(0.739813333503 -0.011248111998 0.000431261903612)
(0.822751136419 0.00179880970623 0.000436440394553)
(0.822572148967 0.00181677053323 0.000184696039575)
(0.821028516078 0.00147366041777 0.00117362820672)
(0.739522676333 -0.0128008847608 0.000530169017029)
(0.739148858522 -0.0121043131906 0.00135980782498)
(0.821623236848 0.00154771788166 9.09619989773e-05)
(0.73973764089 -0.0121251918694 0.000702090995887)
(0.822209924787 0.00170585064817 0.00118913009957)
(0.795552108962 0.00799331322227 0.000531882625039)
(0.802194359569 0.0107752160548 -0.0027454618299)
(0.804439118707 0.0171306171363 -0.00387305916022)
(0.807982682519 0.0129430055993 -0.00202980800745)
(0.137072170994 0.135455067581 0.00400416448948)
(0.264329431577 0.129811915965 0.000670587886589)
(-0.151448429972 0.0813075256472 -0.00396292131419)
(-0.0157314120122 0.0839744738221 -0.00908937646645)
(-0.194860237948 -0.0216180392252 -0.00809980193103)
(-0.154774057339 0.00154125550141 -0.163327522184)
(0.0723824422271 -0.317198459435 0.0185588520998)
(-0.0457940190988 -0.138258312203 -0.153860279223)
(0.236033722603 -0.107065856743 -0.0970536836905)
(0.0298113157694 -0.0388239431549 -0.248098662256)
(0.315351671803 -0.0457781471934 -0.181617947046)
(0.792855713613 0.000271343766619 0.00210567277959)
(0.79414167728 0.0024950463462 0.00153563719065)
(0.752071090472 0.00684946703945 0.00590540112369)
(0.754841032929 0.00738734584355 0.00134347536358)
(0.791467004446 0.00508195263337 0.00385989995574)
(0.753818492112 0.00855434080335 0.00276193317613)
(0.795977994179 0.00500498234248 0.000189263993225)
(0.798529229184 0.0067792336281 -0.000668460383064)
(0.755514869346 0.00644096977878 0.000769979558092)
(0.75657730743 0.00187107043568 -0.00330200920998)
(0.794142610376 0.0127365283722 0.00264114617414)
(0.799484347738 0.00959513179333 -0.00110899055137)
(0.799238448849 0.0133004927816 -0.000287631351622)
(0.754415611078 0.00736744316647 0.00176898337938)
(0.754596368628 0.0106252470557 0.00324347123402)
(0.755460738871 0.00242331940765 -0.0027269093487)
(0.755751352017 0.00427385443536 -0.00244037378003)
(0.800347446519 0.0189488718998 -0.0018030482556)
(0.802549955873 0.0239295150349 -0.00199837753755)
(0.756144856207 0.0120924577085 0.00356529111436)
(0.761860645815 0.0171832705365 -0.00342966462999)
(0.757687909677 0.00553743741726 -0.00279829841628)
(0.763197186437 0.00970678303305 -0.00665684786953)
(0.802853673386 0.0137820361863 -0.00183193226762)
(0.805134893146 0.0129757355566 -0.00169181105554)
(0.754901187726 0.00104285190453 -0.00276669736395)
(0.755300389407 0.00272402439488 -0.00229218318612)
(0.75426365677 0.000990658247139 -0.00155642738945)
(0.806079133658 0.0205458124254 -0.00516724073628)
(0.806713394682 0.0149900738913 -0.00287105826013)
(0.807820780898 0.0174376882985 -0.00405995054586)
(0.757201201984 0.00375633545181 -0.0023498801665)
(0.762986849002 0.00733781701658 -0.00513324485376)
(0.756435667088 0.00148466623198 -0.00138413663807)
(0.762200167931 0.00240916658695 -0.00248125741067)
(0.756299313606 0.00131981540226 -0.000487970332865)
(0.761813122549 0.00140590874634 -0.00212513573694)
(0.132259626238 0.0726248593625 0.00360936274934)
(0.0976253986738 0.118905389963 0.00487268528528)
(0.185398274922 0.117441480524 0.00370161179988)
(-0.192363281712 0.0171176119289 -0.202581343554)
(-0.138175752322 0.088758469476 -0.181293541515)
(-0.190481884904 -0.0288363175647 -0.170880513797)
(-0.089360665327 0.0179878695585 -0.169346904171)
(-0.0593810953398 -0.0625695843571 -0.112585234275)
(-0.132006396959 -0.0682827953622 0.070749085281)
(-0.0166766445352 -0.0902077914602 -0.104675134444)
(-0.138973491481 -0.0262464119489 0.0420158721241)
(0.0471183785302 0.127933910782 0.00435230333456)
(-0.0794840870297 0.126703089042 0.00278151077901)
(0.212342890041 0.136447620451 0.00276198158828)
(0.0134040919185 0.136045013956 0.00218643545817)
(0.0825332763325 0.138469639398 -0.000195783327398)
(-0.0772601875527 -0.0999116864274 -0.132569932103)
(-0.00958020572139 -0.0702336348557 -0.120961243556)
(-0.0356472504737 -0.0988232213925 -0.0532905099972)
(0.00777129773286 -0.090628418467 -0.0345397526348)
(0.281455094676 0.0987621757236 -0.00974680424444)
(0.134946571122 0.123588410058 -0.00525865702877)
(0.141978218255 0.0962834064993 -0.011995810021)
(0.0288191677004 -0.0701607563091 -0.0464097194082)
(0.0309605197553 -0.0269148414501 0.0553416464367)
(0.038011564835 -0.113833456406 0.0134166890246)
(0.0807542806164 -0.00821791039544 0.0698683587842)
(-0.0768681897658 0.0875507808177 -0.00652394787201)
(-0.18042258029 0.0113935873992 -0.007849699721)
(0.0383924641492 -0.0922523402592 -0.0144172656135)
(0.0674026327822 -0.0783132289148 0.000724081494158)
(0.0547168117663 -0.0711224503755 -0.00884924115507)
(0.0259713112323 0.0678793373995 -0.00977450237568)
(-0.124785678042 0.0135439037631 -0.00894879519825)
(-0.0737328593019 0.0188262059019 -0.00853275632893)
(0.097024178171 -0.100696700229 0.0189510896355)
(0.145616227574 -0.0515834849308 0.0524107727767)
(0.0947956385576 -0.0947114233507 0.0059572522134)
(0.144952234938 -0.0697712719872 0.0279294919552)
(0.796708827584 -0.000117941463363 0.0020083584111)
(0.7953095858 -0.000460507456229 0.00441730031164)
(0.753456064615 0.00614091594686 0.00451821094238)
(0.7526506178 0.0078928895657 0.00443353287155)
(0.795804472963 0.00017933790871 0.00330784148721)
(0.754307550247 0.00687987333921 0.00314122704532)
(0.796391232543 -0.000771237588836 0.00317336641891)
(0.797109791907 0.000668979094349 0.00091952050261)
(0.797045489853 0.0027449993 0.00125776049625)
(0.753733904899 0.00789896090944 0.00289816454091)
(0.756684963304 0.00625991230604 0.000834141513454)
(0.796321244855 0.00117147341003 0.00196779798016)
(0.7977950086 0.00131479413179 -0.000138720894841)
(0.755490552208 0.00687868309136 0.0018766817016)
(0.793501051207 0.00309552578339 0.00541007714433)
(0.795878485478 0.00338769332206 0.00212316388473)
(0.752871572606 0.00920849700249 0.00425779598828)
(0.753236865052 0.00970145445677 0.00312742758484)
(0.794683269851 0.00189509856428 0.00382194814861)
(0.794911036034 0.00498262925806 0.00427478931601)
(0.752204139271 0.0100245184285 0.00508344053744)
(0.799830161776 0.00290855055224 -0.00192344201007)
(0.79796585725 0.0037804914422 -0.000222399427138)
(0.75715424379 0.00522837771875 0.000162863732792)
(0.756429272708 0.0052303889242 -0.000777600628891)
(0.798844042193 0.00233603188544 -0.00125585412638)
(0.79921087546 0.00435478306732 -0.00163230177248)
(0.758068223112 0.004518750184 -0.000991748968253)
(0.800706906056 0.00390292542621 -0.00377243215326)
(0.801507739018 0.00655301456871 -0.00455625071885)
(0.756581466323 0.00358952163916 -0.00171556108571)
(0.758086095154 0.00163702207429 -0.00344688393077)
(0.8004292486 0.0052784511935 -0.00338567898512)
(0.801721695585 0.00527771076581 -0.00464784544691)
(0.757980759831 0.00321285489729 -0.0022601269162)
(0.797915638457 0.00734056472767 0.000126596913351)
(0.797487274494 0.0048208367205 0.000760817190082)
(0.753925863598 0.00833486916607 0.00200593537551)
(0.755305704298 0.00612648061749 0.000264497447841)
(0.796204048376 0.00651141234143 0.0018550827534)
(0.799021950726 0.00573761866817 -0.000518263481818)
(0.754788330479 0.00700806635392 0.000355775202975)
(0.797438132185 0.0091708121309 0.000976679140706)
(0.794199173234 0.0105319979553 0.00291503310632)
(0.754197010573 0.00948437127674 0.00302571241925)
(0.755269468227 0.00867847735065 0.000758687097879)
(0.795435658993 0.00836088904913 0.00254174519058)
(0.796619158644 0.0114716952819 0.000755070972067)
(0.755045888967 0.00770724184883 0.00110326471833)
(0.799684412536 0.00811213401818 -0.00232164996124)
(0.801746826043 0.0079123856068 -0.00371415361071)
(0.755280620702 0.00444354033714 -0.00115047566949)
(0.754955690984 0.00291448267481 -0.00257783248256)
(0.800425206806 0.00663739228119 -0.00243671756601)
(0.801275921203 0.00939373303182 -0.00382054313572)
(0.754687682834 0.00492208569057 -0.000689997963143)
(0.799571638479 0.0102492358846 -0.00136990288125)
(0.801163384328 0.0132312533975 -0.0037596842724)
(0.755409032302 0.00664804623127 -0.000299609751202)
(0.755134146178 0.00342642310092 -0.00221877516135)
(0.799026646848 0.0123259390496 -0.00207837721879)
(0.801422332375 0.0113382916525 -0.00300519114787)
(0.754840837466 0.00565844833254 -0.000124309807904)
(0.797276019159 0.0168367151362 -0.000459242918799)
(0.793877303352 0.0130650910828 0.00331866249823)
(0.757267517763 0.0133586428742 0.0026739226352)
(0.756900178622 0.00999968976385 0.000735369249871)
(0.794403675228 0.0160192415427 0.00221115228972)
(0.79637216161 0.0142122482666 0.000741479435447)
(0.758164967097 0.011260891679 -0.000626908382444)
(0.798223223565 0.0197130184961 -0.00201364245017)
(0.79863185892 0.0211282727506 -0.0032909037709)
(0.759060520267 0.0153856959161 0.000429147199265)
(0.76230353356 0.0152621614468 -0.00486190338629)
(0.795448447321 0.0190454232546 0.000161217010302)
(0.760238864918 0.0132651922443 -0.0016713414109)
(0.801120476043 0.0219137259073 -0.00492348989429)
(0.799889184483 0.017521871579 -0.00364160923763)
(0.801351857323 0.0156407791303 -0.00331499115954)
(0.757254256069 0.0079608088905 -0.000644664304527)
(0.759220662948 0.00648030900298 -0.00381639963989)
(0.799025657055 0.0150504101868 -0.00186603258877)
(0.802024141577 0.0179673360479 -0.00511292075949)
(0.758879502979 0.00914408597847 -0.00174918967964)
(0.801006630702 0.0200601521459 -0.00461353754464)
(0.804995840383 0.0224638575889 -0.00815727955421)
(0.76286570729 0.0127402847918 -0.00553275531963)
(0.761283671696 0.00811647846841 -0.0050330433638)
(0.803103776459 0.020317341869 -0.0057734816245)
(0.760710969963 0.010835327465 -0.00294284007194)
(0.80326943744 0.0223300391679 -0.0075939592942)
(0.804103594697 0.0111510137828 -0.00464271378236)
(0.80308336154 0.00911102364869 -0.00424495216057)
(0.754460520121 0.00136422904917 -0.0025513171707)
(0.75447500064 0.000225579776383 -0.00355492310772)
(0.802706238822 0.0104012325185 -0.0043331287193)
(0.804298937334 0.00990141307326 -0.00472123652998)
(0.754100177007 0.000468251343078 -0.00335609884329)
(0.804671614298 0.0128139787542 -0.00388234126989)
(0.802967229609 0.0139964669971 -0.00424786765392)
(0.754577312705 0.00179477196693 -0.00231382707305)
(0.754949060759 0.00144852630795 -0.00300396610166)
(0.803156136159 0.0122892263883 -0.00360243908084)
(0.804678034298 0.0143794733005 -0.00439187314902)
(0.75430245075 0.00069281314526 -0.00318211980226)
(0.805984647681 0.0131096135789 -0.00281925309872)
(0.807095788536 0.0137028316751 -0.0025420616688)
(0.754632976714 0.000946919870405 -0.00191762343127)
(0.753279493791 0.000863437509039 -0.00184668281609)
(0.805973208972 0.0143603519114 -0.00314019241555)
(0.80702768891 0.0127436956854 -0.00237827335817)
(0.753836539422 0.000494449153379 -0.00205626581236)
(0.805849148765 0.017965873216 -0.00516986745712)
(0.803505836169 0.0161787266538 -0.00363106730828)
(0.759030632685 0.00464548317582 -0.00320020426243)
(0.757132796525 0.00237901020719 -0.00299388478423)
(0.80411473061 0.0182781508785 -0.00534169792627)
(0.805285926909 0.0161194741088 -0.0038066775137)
(0.758989464283 0.00308421831261 -0.00363408448835)
(0.806827611223 0.0195487478919 -0.0051922976802)
(0.806819371201 0.022242465772 -0.00729488674737)
(0.761123430089 0.00604266919971 -0.00386430883743)
(0.762889842938 0.00487682675636 -0.00501441666145)
(0.805312271453 0.0203944682435 -0.00533332324804)
(0.761260731584 0.00409761891733 -0.00427578045026)
(0.807995554232 0.020912752012 -0.00644006707567)
(0.807058708956 0.0171575251453 -0.00352104871057)
(0.807803594897 0.0149213988534 -0.00198415436092)
(0.756663696294 0.00181178348233 -0.00169799744621)
(0.758378533509 0.00173412809382 -0.00156760864592)
(0.80679026685 0.015851630744 -0.00243969254268)
(0.808064416245 0.0159427855222 -0.00287327176964)
(0.758537765169 0.00195867542538 -0.00200897968297)
(0.808180770155 0.0184835032315 -0.00322283797499)
(0.809660641806 0.0176407454483 -0.00360398730686)
(0.762590363383 0.00309077895751 -0.00298558169585)
(0.760455884897 0.00207892683574 -0.00204337214188)
(0.808946005903 0.016969923186 -0.00280728329692)
(0.760745366409 0.00277494557866 -0.00243257709369)
(0.809053462399 0.0194033451695 -0.00451143571494)
(0.809390111995 0.0128020818054 -0.00160806342846)
(0.808621270948 0.0137281879374 -0.00109615192869)
(0.758221968288 0.00130547152924 -0.000787164123177)
(0.756089602318 0.00151186794647 -0.00017827245568)
(0.808816113314 0.0143820145342 -0.00189813966198)
(0.80919767571 0.0122830198665 -0.000791024407377)
(0.757938428615 0.0012950810722 -0.000572540894197)
(0.810256955609 0.0156954221321 -0.00296415416357)
(0.760282116163 0.00134660136975 -0.00142785694274)
(0.809597190549 0.0152652501022 -0.00194496113032)
(0.817092630649 0.00549735151015 -0.000573560622588)
(0.81846602368 0.00398898123917 -0.000703593343813)
(0.819528316379 0.00228966122206 -0.000713809654107)
(0.817159248097 -0.000123428334128 -0.000451643374915)
(0.809260582799 -0.00109589018601 0.00019151744507)
(0.835486873499 -0.0495800475657 0.000344500129043)
(0.817515520045 0.00589692020041 0.000395176655976)
(0.818566208397 0.00421176815938 1.46445472792e-05)
(0.819616233069 0.00299100218231 -1.23803339457e-05)
(0.818165026667 1.01104312707e-05 0.00236101211958)
(0.810237300786 -0.00141897455154 0.00568800033047)
(0.840645422405 -0.0564824533066 0.00689279475191)
(0.816859451579 0.00621130334683 -0.00102595908991)
(0.814394812376 0.00573035354624 0.000563042913525)
(0.789453012904 0.0101085016038 0.00287035457293)
(0.785364444413 0.0109578242732 0.00155305029123)
(0.781886282723 0.0114560550216 0.0018742915151)
(0.773142733919 0.0139430912746 -0.00109991416007)
(0.782374210124 0.0170437963454 -0.0353401418561)
(0.712238274494 -0.00949364045204 0.0270518588505)
(0.826561374908 0.00611370520176 -0.000814676471919)
(0.824977032225 0.00319627079019 -0.000478848870853)
(0.820300699749 4.5175614306e-05 -0.00119603620401)
(0.818582174825 -0.00153479110155 -0.00354915168784)
(0.817287850926 -0.000184042721957 -0.00422457429514)
(0.818205808876 0.00259062454414 -0.00350791357154)
(0.809261508515 0.00975146632681 -0.00167571251652)
(0.839759100881 -0.0869367871797 0.00749468593494)
(0.820603430116 0.00748337560321 -0.00106186531554)
(0.822936391465 0.0051467166367 -0.000963670705461)
(0.822899549103 0.00356266959492 -0.00136774292294)
(0.822271940435 0.00324287581204 -0.00222550998181)
(0.821042637705 0.00306409973592 -0.00213033592866)
(0.821104690971 0.0025396102694 -0.00137223936601)
(0.812638579329 0.00138703571837 7.19462683946e-05)
(0.845924716193 -0.0625333175827 0.00349149654492)
(0.817070731473 0.00842333356574 -0.000914999067782)
(0.819700357948 0.00546077445139 -0.000863269111787)
(0.820668203505 0.00322451092545 -0.000981496427175)
(0.820857420673 0.00178113717688 -0.00121935893357)
(0.819936905134 0.00110582414556 -0.00159127557615)
(0.819774713663 0.000123605365876 -0.000837969990483)
(0.811002526038 -0.00131763103837 0.00061111605675)
(0.840132661609 -0.0675915381557 0.0019087740852)
(0.819121344168 0.00169138696474 -0.00105331049059)
(0.818702700358 0.000438159789503 -0.000580601604567)
(0.81007443325 -0.00096080270633 0.000332525844184)
(0.837955903931 -0.0524395063869 0.000646222115786)
(0.638969068229 0.041187882043 0.00704948014569)
(0.636909132 0.0402061772029 0.0139197007082)
(0.64582301471 0.0244250483845 0.0205561190706)
(0.642129398461 0.0218661007723 0.0160002973959)
(0.638252284822 0.020623660215 0.0175297217545)
(0.590944644983 0.0206976764458 0.0232254086809)
(0.684313920894 0.0216649371799 0.0323572558608)
(0.119499639752 0.0164495744165 0.0671889979591)
(0.773057618633 0.0143602096942 0.00456927586835)
(0.770756654666 0.00925192544151 0.00654103718758)
(0.776150987491 0.00267095121009 0.0115678352692)
(0.772932668937 0.00170608747194 0.0131144784155)
(0.772194854907 0.00389405264287 0.0135254042817)
(0.7712660407 0.00745650555806 0.0186774127351)
(0.768551625746 0.0537085163036 0.0324109126368)
(0.795270901244 -0.194129009429 0.0512037960768)
(0.822682574773 0.00859277499912 -0.00199112047012)
(0.822776972463 0.00650669835712 -0.00121478766346)
(0.821835631876 0.00644401101156 -0.00080072257805)
(0.821727865799 0.00708327819196 -0.000470399998144)
(0.821481119226 0.00732785722855 0.000892117418304)
(0.8236406235 0.00681809071044 0.00453011866905)
(0.816475658226 0.00535334374662 0.0143237055113)
(0.889256965135 -0.10852290651 0.0195115513639)
(0.817930223779 0.00864430416652 -0.000850105376398)
(0.819942316422 0.00531716103198 -0.000257146010482)
(0.820508776129 0.00396624464304 -0.000157778666149)
(0.820640789285 0.00333419091334 6.84263943541e-05)
(0.820401085799 0.00254551118275 0.00112411625247)
(0.822227299626 0.00106843276332 0.00428702983626)
(0.814147982022 -0.00112148586807 0.0103520091966)
(0.856594465492 -0.0850548468779 0.0135549349869)
(0.819392256804 0.00240597946756 0.000770794107477)
(0.820142116486 0.000970641674637 0.00328267082428)
(0.811556189988 -0.00139511071035 0.00748282438146)
(0.846749957155 -0.0656802237264 0.00896801252346)
(0.634000628617 -0.0174694013246 0.0107772362101)
(0.628800607901 -0.0168028821967 0.0189197859331)
(0.636213073579 -0.0207209366765 0.0240574343091)
(0.633525103944 -0.0185371746517 0.0236073988111)
(0.636380255541 -0.0152365456699 0.0256022903132)
(0.634246968433 -0.00376246989693 0.0294404004405)
(0.689392591677 0.0636270709851 0.0818302589128)
(0.625560834132 -0.417203060824 0.0194992158988)
(0.733809727751 0.00677962059001 0.0163843901711)
(0.731729381793 0.00133270107839 0.0205195233582)
(0.78382565643 0.000762976887843 0.00818462015073)
(0.783031652815 0.000264716489689 0.00985395643457)
(0.784931771547 0.00197515150813 0.0109674952038)
(0.7939034647 0.000541093694375 0.011567793648)
(0.804278496874 0.0118290324869 0.0180888939066)
(0.914294334304 -0.219401152658 0.0147115789975)
(0.823197577902 0.00882147145867 -0.00319085505188)
(0.823655047059 0.00759361009503 -0.00234010021064)
(0.823332767009 0.00454642934633 -0.00210800274267)
(0.823786130137 0.00264074594268 -0.0026555910518)
(0.825615750963 0.00244709665955 -0.00248162010324)
(0.833222333417 -0.000641031305931 -0.000336078606854)
(0.825952634613 -0.00615797461465 0.000900246962596)
(0.924651134562 -0.19258328396 0.00118970007646)
(0.815136102524 0.0124811840749 -0.00252387277878)
(0.819196200058 0.00927842356498 -0.00131228926492)
(0.82041376882 0.00640757730024 -0.000863246742915)
(0.820966645161 0.00390249913364 -0.00100498601936)
(0.822119791393 0.00268995248289 -0.00193699974987)
(0.823400390025 0.0018767056385 -0.00155405925688)