/*--------------------------------*- C++ -*----------------------------------*\
| =========                 |                                                 |
| \\      /  F ield         | OpenFOAM: The Open Source CFD Toolbox           |
|  \\    /   O peration     | Version:  v1906                                 |
|   \\  /    A nd           | Web:      www.OpenFOAM.com                      |
|    \\/     M anipulation  |                                                 |
\*---------------------------------------------------------------------------*/
FoamFile
{
    version     2.0;
    format      ascii;
    class       volScalarField;
    location    "5.95";
    object      p_rgh;
}
// * * * * * * * * * * * * * * * * * * * * * * * * * * * * * * * * * * * * * //

dimensions      [1 -1 -2 0 0 0 0];


internalField   nonuniform List<scalar> 
28582
(
19554.1921768
19551.5314793
19554.6784022
19551.473084
19555.8409989
19550.6998924
19560.205692
19552.2328943
743.053747208
846.422605153
0.309208035104
19556.8197471
18243.8290677
18035.971087
19547.3928911
19547.2835329
17943.8644199
19532.4259489
19529.9049339
19556.1365793
19549.5620503
19548.6628365
19556.6378213
19549.0716286
19548.2007888
19558.0962425
19546.588202
19560.87737
19544.3241339
878.605289171
0.0738821721346
-0.0743609918358
19560.0649445
19560.9546251
18314.8637868
18229.7714076
19559.8448596
19543.0973136
19543.5928223
19542.3612896
19528.7404956
17429.3693472
19525.3630039
19521.7073293
782.002296751
845.858760401
12.0902344086
12.3182397994
816.291070125
11.4036111734
19560.0374149
19559.134307
18194.5953384
18287.3591395
19561.2025264
18241.8994989
19557.9106597
19555.8577803
19550.1827986
18120.8154287
18080.2382622
19551.5681187
18174.9139862
19554.5412175
19541.8962779
19546.063966
17850.2692072
17975.8178509
19546.9096446
17863.7810864
19541.6596194
19533.1485285
17647.9424889
17639.7551124
19537.1910377
17750.795688
17753.0687171
19537.4604577
19528.8853737
17616.0071624
17585.2598776
19535.8505693
17743.9361892
19536.051874
17745.1188004
716.581459279
6.65826942225
681.825540003
716.15648205
4.86725843272
6.12650792332
881.473966448
9.29915318052
9.49004125372
924.254209169
9.17786899567
918.281881187
9.5097518996
19559.0556451
19559.1679288
18297.2997056
18317.9950118
19558.6114322
19559.3191657
18297.7455593
19558.3239775
19556.5462951
18269.067336
18236.6327885
19557.6772099
19557.2291513
18268.1102559
18281.5328282
18256.5689939
19559.4305499
19559.4125451
18251.0398778
19558.9022527
18284.119452
19529.6720474
17559.0428241
17546.897249
19526.9632527
17489.9925644
19528.0935264
17470.5463084
19526.3894178
19528.9934681
17451.6692042
17411.8894192
19527.9681647
19527.8022018
17426.5301899
19522.0496194
19523.6525533
17518.1556451
17475.8332303
17395.1757561
19523.8014309
17441.3010534
17364.3964215
17361.5810643
19523.7159289
19523.4105533
17396.1293719
19524.7772777
17403.0191404
19546.2863651
19543.7215525
972.767004941
-0.354573720827
19559.2804246
18221.8344223
19543.0237818
19545.5514128
17433.8552556
17371.636124
17481.0834951
19547.8400429
19549.6788228
17508.6792629
17568.9105977
755.837483375
980.680348171
1003.17139048
8.12891663815
7.25596875748
4.04629605359
1029.82692987
1038.11813024
19555.7714122
19558.5352793
18207.3385536
18171.1459864
19557.6712147
18156.0429431
19556.6535005
19530.2475204
19529.7601651
17451.9034739
17419.2901779
19530.6532468
19528.8720487
17441.042105
19528.1309624
19525.5735134
17404.5616015
17397.3636621
19526.0960155
17426.9420799
19527.6994001
19530.533344
19533.5303111
17495.3331733
17439.7396491
19533.3635247
17462.7321926
19530.283861
19537.5208629
19535.8025434
17519.5800316
17534.5359958
19535.6696508
17550.6469551
19537.3437284
19538.6854845
19539.1791794
17582.6982889
17551.2769698
19539.6066785
17579.0571072
19538.4323669
19571.2225853
19564.0410284
19563.5123327
19561.8509624
563.221561134
592.259920839
638.996923633
651.247199165
637.789243242
-0.0132450632178
0.475496433714
-0.049159050476
0.209443253632
-0.13321762279
0.0629206233669
19576.0039072
19574.8056569
18803.8894404
18730.7409008
19575.4550153
18671.5078971
19571.1669705
19567.3707729
18616.5680785
18339.5294626
19571.7263308
19566.9517139
19566.9036375
18575.3517566
18566.1730488
18348.753228
18365.5330829
19566.2757923
19564.0390499
18556.0218202
18465.9288664
18371.7732337
18358.9332596
19563.9868325
19562.5643176
18312.3065538
18320.6476854
18290.4239908
19562.719395
19562.422818
19562.1814362
18330.120969
18324.4546088
18297.4851633
18308.3558957
18306.3114771
18315.0133505
493.855854708
503.903231345
531.767186056
0.763353129993
1.08440890684
1.12164260982
1.47035584143
2.48656173376
8.77380809046
3.38197031455
9.07652091428
545.41499169
582.276968488
584.802926626
605.991009678
626.904671832
2.05638631637
2.16868522636
2.92446443205
2.47920528507
597.473600691
621.670367306
631.275819918
3.15008422071
6.69736735671
2.77628384494
4.59727665293
655.67150691
653.385542917
3.19557217554
2.44058155492
2.29471654384
655.278970348
654.882776238
656.975450248
2.47347793098
3.11176196552
2.29849055358
2.51422773801
19575.1789017
19574.1516622
18824.6450182
18834.6222633
19574.7347008
18855.5560191
19574.7455621
19574.5382215
19571.348532
18809.8934601
18775.6052762
19573.8530119
19572.6028637
18841.4047364
19572.7209106
19570.6858431
18752.5677783
18620.3046764
19572.8769473
19570.1697161
18687.6638609
19565.6895519
19567.9469023
18671.7640555
18509.1957679
19568.9995562
19564.3792452
18574.0064367
19561.5984816
19559.6863474
18427.5208954
18384.5497187
19561.4277889
19559.5847039
18471.3210785
19565.6442261
19567.1058341
18550.8500195
18477.8195561
19567.560922
19564.267988
18476.661842
19566.5806871
19569.7308855
18557.0557921
18493.5500914
19568.8361631
19567.6746582
18484.5753956
19562.4330572
19559.90504
18416.1991815
18357.6841211
19561.8737157
19560.7845502
18420.918074
19563.3987358
19562.1361387
18442.5171689
18362.2067821
19564.4445167
19561.4686339
18431.9928218
19567.5432865
19570.0797953
18532.6104988
18494.4827028
19569.5118498
19568.2624116
18488.9831369
19565.9247226
19565.6354643
18497.3840347
18450.7027197
19567.9096262
18472.2030963
19563.7630342
19565.1901784
19562.8275092
18445.3347556
18375.2833996
19565.4395848
19563.044329
18439.4536778
19564.1298572
19561.2432195
18402.0425295
18371.8986708
19562.4866673
18419.573108
19562.4556342
19558.3054789
19558.4227916
18315.6641429
18281.1097832
19558.9911752
19557.8976098
18283.9072513
19558.7387681
19560.3277959
18318.6955351
18294.4949008
19559.6491242
19559.2049131
18290.6840651
19558.3778433
19558.6355168
18289.0366095
18288.6681926
19558.9806813
19558.106353
18287.4500257
19560.3403182
19561.10371
18338.368398
18299.6471181
19561.6492409
19559.7259214
18309.689243
19560.3848607
19560.8409958
18335.6652699
18314.3440447
19561.5244063
18314.8067757
19560.1492932
19560.0581419
19559.0833562
18292.8118042
18307.6894492
19559.6106102
19559.4257945
18302.5132058
19560.1329729
19559.6679609
18311.7522361
18309.5321623
19559.7263316
18311.1690427
19559.8881956
19559.254364
19558.8838601
18311.6104624
18323.4831594
19559.1924906
19558.8770752
18326.1702694
19559.3417653
18314.4442732
19559.3194143
19553.3383825
19551.0305853
19549.6507639
19548.3618579
19548.3022389
19550.8713679
19553.7460489
19551.0434546
19549.3167696
19548.370348
19548.7464836
19551.2248429
19546.0399562
19548.8659984
19543.5514906
19546.6633561
19548.7889592
19550.5967119
19553.8807159
19548.957078
19547.3698093
19549.671346
19549.2325349
19549.0867075
19549.532886
19549.9708975
19550.1322944
19550.2678696
19552.1994309
19550.2163545
19549.3154681
19549.2220906
19548.8641088
19548.7755169
19548.8376742
19550.162469
19554.7232321
19552.0218471
19550.5465108
19549.7786589
19549.3928053
19549.0937923
19549.027432
19550.9465182
19549.0250929
19548.6447256
19548.4471026
19550.8344151
19544.548814
19547.509558
19547.4260898
19544.9630482
19544.8610933
19549.1127164
19554.8726204
19536.299761
19548.1000219
19549.6757088
19551.4449601
19549.4000275
19547.6466931
19548.402372
19549.344829
19544.0921751
19552.1844172
19551.1647064
19550.1286037
19548.9776414
19547.8500227
19548.0070259
19547.9637972
19547.5842053
19555.1294731
19552.7073483
19550.9996052
19549.666812
19548.9533209
19548.8733668
19548.96524
19550.3509397
19548.625924
19548.6235181
19548.7885369
19551.0575782
19543.495207
19547.8825784
19549.9533597
19543.5704563
19542.2229452
19548.1095713
19554.6361679
19532.825994
19547.8282783
19551.5251671
19548.4590512
19544.95316
19544.6642933
19547.3024479
19548.3201163
19540.3694616
19553.6843068
19552.6960629
19550.4641427
19546.744884
19545.8870144
19547.3170799
19546.7527761
19545.6804237
19559.097712
19556.5920182
19553.7055164
19550.2489836
19547.182072
19546.7016485
19547.8891555
19547.8873064
19548.6496285
19554.6043817
19550.3531871
19547.1162691
19546.8615323
19547.9737202
19548.0458466
19549.8244478
19547.589126
19547.990027
19550.2904875
19546.6307778
19553.0581301
19556.3564253
19548.6418079
19539.8716678
19546.6562735
19553.8736413
19557.3296026
19548.3194553
19549.4007727
19554.2017067
19553.4566273
19544.0787962
19540.56602
19546.3906585
19551.3652474
19549.1092227
19561.1883266
19556.8705351
19554.8187066
19556.3476644
19554.5156967
19544.708675
19540.7282633
19546.8230035
19550.6861299
19549.1635323
19559.8992659
19558.6609995
19557.9058951
19553.2185515
19544.7157974
19543.0539516
19548.180436
19551.3347276
19550.72354
19558.4773385
19551.8678306
19544.7784636
19544.2112607
19548.7913565
19551.5301607
19551.1497786
19548.1533471
19551.0318451
19551.4424245
719.847531375
743.763245058
815.101512721
952.871025171
1023.21991015
1139.34422903
1187.27710365
1206.21168923
610.003240823
642.260811011
705.951862028
741.651952484
844.129105721
990.675186869
1043.35860238
1147.26083163
1199.24346351
1209.47908666
660.146715611
648.237144056
660.979379236
718.829852552
831.419127499
954.586598226
1043.26981854
1144.09021576
1167.22769056
1187.05354524
646.595654886
666.370652739
729.435925741
848.069187889
903.384252241
982.005163351
1070.49676042
1094.01134273
1141.54493525
756.307381324
841.513166869
873.428094749
956.613323845
1016.94677361
1039.9190919
1078.98207245
1016.28025911
1034.59584448
1036.65612056
0.259588360663
-0.132210009472
-0.165405279957
-0.0531554684155
0.111547735654
0.827947379363
0.26569311145
-0.196043654029
-0.375584606427
1.36429456378
0.150278086695
-0.0746851524807
-0.176562238268
-0.0516700795443
0.204499467139
0.815896727624
1.49939198874
-0.225665179304
-0.424556940292
1.71113912158
0.337204965355
-0.0240278867859
-0.141171645254
-0.083599023808
0.00834403793933
-0.173537146193
0.584832485027
-0.163142356642
-0.408484541284
0.959632047313
-0.0737600770655
-0.0884467252671
0.0520864741224
-0.0690431711513
-0.174219177243
0.483705321632
-0.135726723803
-0.374488016008
0.711498218675
0.145990047459
0.289928411273
0.600047481354
0.635798649833
-0.166857785067
-0.335119130123
1.02351506313
-0.109839877264
-0.263851208618
1.32927100052
19547.7918369
19545.8867793
19547.8755096
19545.611769
19547.7472557
19545.9592593
19547.7944099
19549.1559657
19549.3058186
19549.7751067
19549.1445099
19544.8265478
19548.748364
19547.1043693
19548.4428946
19549.7035015
19549.3809704
19547.4600962
19548.8415791
19549.5288521
19549.7366375
19549.8278813
19549.9363283
19550.1654543
19549.721827
19549.1358896
19550.3782032
19550.8481446
19546.4499594
19545.7785168
19547.2318474
19543.5281375
19545.8986168
19545.1397034
19547.1414231
19547.3703312
19547.7021971
19548.4309751
19547.1875598
19546.933522
19548.1309483
19547.5949582
19549.1978598
19549.6962434
19550.0253531
19547.8828246
19549.4792645
19549.8235401
19550.0195103
19549.2309526
19550.4769644
19553.3148491
19550.4085532
19546.3138859
19550.1812666
19552.4804178
19546.2651319
19545.3424193
19547.6356377
19544.5366997
19547.7645878
19546.2655731
19548.9732024
19548.2143819
19549.2320346
19549.6870712
19549.9133163
19551.0446901
19550.9834536
19553.0421761
19549.9652344
19550.050047
19550.6274585
19548.5394292
19550.8598362
19550.548066
19551.7202215
19548.1489669
19551.0859782
19552.5203919
19552.4826755
19552.1863464
19552.6700964
19554.0275161
19543.2924852
19545.6622156
17955.4922196
17991.88765
19550.0313247
19548.2055484
19550.9674866
17958.5536221
18040.6429477
17993.6956087
18051.1905525
19555.6207792
19553.5014314
19555.2781034
18071.5471108
18133.804097
18083.0186054
18111.7196728
19554.1839865
19554.3282739
19551.1880954
18179.1639389
17972.3773609
18067.6931593
17654.2812788
19542.2932519
19546.1745314
19541.3846886
17723.3534657
17050.806678
17438.4618725
17003.3483335
19542.6134905
19539.9751839
19542.4842052
17095.1518483
17263.4409936
17043.383273
17218.6517285
19550.820183
19546.1065955
19549.9569918
17301.7663195
17419.2113127
17263.6427772
17372.7757864
19555.9533631
19552.398504
19553.4121438
17424.0217093
17426.5184114
17375.5516054
17320.725427
19540.3627014
19551.8955243
19541.824768
17398.5890816
16853.8375168
17287.4590402
16823.4940751
19560.5578012
19556.8484
18440.4503867
18248.6632302
18343.8843376
18302.0548849
19547.9791322
19553.6395447
19551.9313761
18192.1616375
18022.859649
18272.8840055
18185.9392305
19551.8650749
19551.9945178
19553.5436899
18023.1448863
18065.6154717
18166.7680073
18161.4955662
19555.3181284
19555.5468393
19556.4375003
18096.385514
18138.8762942
18169.2568107
18201.8740313
19549.0045986
19554.8020514
19550.5670984
18081.3503852
17633.0102554
18147.7358354
17654.6149625
19540.8645716
19545.2636782
19541.3161816
17426.4145231
17028.3242108
17459.4110097
17109.3782623
19542.9358012
19540.6346797
19543.3735681
17061.2850494
17216.0706665
17119.0292766
17236.499157
19549.6794116
19546.7328825
19549.4822511
17259.2245268
17357.5427755
17272.1380797
17375.0472317
19551.3681146
19550.9310693
19550.7610067
17362.2956511
17291.922326
17382.0191195
17292.30276
19544.0759524
19548.5249213
19546.8135558
17262.72889
16849.3802151
17258.1962772
16869.2925553
19559.1261183
19561.362559
19560.1343943
18313.1282643
18294.3865459
18305.096625
18297.1195581
19555.4141758
19558.6613777
19557.6779497
18278.3440887
18231.2966348
18289.0929874
18287.6671382
19555.2694243
19557.0663416
19556.972645
18211.1353292
18187.3051065
18275.8092539
18245.0477828
19556.6839949
19557.2152695
19556.6685065
18189.369968
18208.7882234
18237.7954385
18189.4206083
19549.8721001
19554.2196417
19549.6505177
18162.0398344
17661.1098218
18108.6912017
17651.136903
19541.2464572
19544.8065036
19541.8948269
17466.2128645
17129.065421
17474.9083782
17249.2708869
19543.6860316
19541.9622335
19544.7342215
17134.0770527
17246.893117
17259.8458717
17386.7914076
19549.2711914
19547.6874165
19549.8127426
17283.5431303
17388.9804029
17414.130303
17489.0147384
19550.8321109
19551.0519779
19551.5094454
17395.6742276
17335.8338482
17488.3685487
17441.5563756
19548.5296663
19550.0575514
19549.7498853
17293.0403151
16867.2981897
17392.0343655
16933.0810593
18313.2490512
18310.2324037
19559.2588013
19560.4289342
18304.684484
18297.1892525
18322.0939973
19558.3869497
19560.0433597
19559.4599801
18289.3311534
18260.9958143
18317.122134
18234.3681407
19556.3400624
19558.2117421
19555.7961316
18253.1282891
18127.5081763
18183.7735483
18017.0865918
19548.6903621
19552.1840858
19547.977643
18045.5316469
17641.9530455
17944.8396282
17638.266857
19542.6913361
19544.8149235
19543.3430958
17496.4961652
17309.523404
17541.9670688
17419.6066516
19545.5844213
19543.9227965
19546.3142931
17320.056137
17428.0072435
17429.8586208
17525.6638227
19550.2399846
19548.7683001
19550.6791049
17451.8566849
17516.8209326
17546.7366913
17597.0124758
19551.7193773
19551.7930711
19551.8617906
17515.644533
17484.9619995
17594.4670292
17515.9047825
19550.9687588
19551.042806
19552.1035981
17433.7016162
16977.2104212
17473.6302406
17070.4467457
19555.7216696
19556.1675926
18181.4274078
18014.6903421
18018.2774881
19547.6072192
19551.9410407
19547.5175623
17939.7461135
17626.4316681
17930.9340344
17647.8213538
19543.638689
19544.7174592
19543.7033708
17539.8135978
17435.1734114
17564.5168538
17445.0284599
19546.4858879
19544.2447589
19546.443138
17445.2366203
17538.3799729
17449.8180401
17533.1716293
19550.7428705
19548.660043
19550.6246364
17558.1330304
17607.0301849
17552.2161644
17606.1845257
19551.5591713
19551.305786
19551.3974375
17604.4406024
17526.9784176
17599.9870091
17525.5539881
19553.0457196
19551.3403257
19553.9576926
17505.7210529
17133.2022123
17536.4988244
17271.7963182
19545.9565623
17517.3181592
19550.1474112
17541.1582308
17602.9830369
19551.2442031
17596.8947784
17534.6726718
19554.2872259
17557.9640082
17305.9114641
8.92236989674
6.85692931765
9.05135507349
6.37114526977
693.743533548
692.444711502
3.32058267197
0.710836402389
2.57639935602
1.08395220106
732.642600771
719.969974095
737.779524497
1.20164527705
3.31905749208
1.02652720831
2.77975659675
767.122150005
747.377125843
781.18610178
4.26731087625
4.28315242325
4.79086444489
6.07847659982
892.571414341
855.701627986
927.450473937
6.174782932
12.0049169518
9.50123585173
14.1471354644
996.462523099
982.063838298
1015.51641236
17.8667293159
21.7668828996
19.3762096687
24.4520017875
1076.09074452
1036.77451619
1089.84895938
17.8885295848
7.73787250273
22.9312427754
9.35707499836
1160.76295973
1147.30353135
1173.48571307
2.29931652556
1.67867899234
2.37827160067
1.82914498433
1191.00243692
1198.75534524
1207.71271718
1.94421953488
2.22274625675
2.24947972201
2.67775971429
1186.95067174
1213.30943037
1187.71917636
6.08526197816
37.2440042283
7.33000617583
41.8493187036
633.715233961
636.685250511
637.320921412
7.23108363085
5.12013039952
6.60864211778
5.62735292614
684.006167527
644.853865999
663.00116153
2.87607916279
1.84965525654
3.98853172138
2.47291282897
724.494934418
680.365673612
699.914321589
0.718197036844
0.690580302509
1.22920007783
0.648248298578
773.578965457
726.994902066
763.261322058
1.9283616878
6.04778271826
0.936193857206
3.02934168523
922.195925785
834.516515765
909.201143839
10.6505048478
14.8321532925
10.1275936079
14.704262959
1028.53635199
974.816464949
1018.10263709
20.1628314766
25.0983738541
18.3893488819
21.8870516143
1096.03053194
1048.56149138
1098.82746022
30.2654267038
11.9160243874
29.6478621205
11.8907879452
1176.73647553
1148.26577171
1171.23511899
2.45585525672
1.94140668073
2.37590387853
1.87728149104
1210.75761641
1188.53221044
1199.61078018
2.4145230191
3.07425548897
2.3967117163
2.99707822429
1178.16123091
1199.08716223
1169.45840674
8.77622722056
46.7929210007
8.85792633553
48.073053316
652.180121333
660.697236199
656.435785731
5.48502033777
7.13533030736
3.89898971205
6.13228871082
647.222836366
651.228570048
649.376678717
5.25945750872
2.81252466078
5.17898917842
3.07578249186
687.945821378
661.244589365
686.525736486
1.2735723442
0.758691658441
1.62182406901
1.08837031939
762.580904845
720.506086131
771.012951655
0.728029369725
1.8761821317
0.97875410059
3.53733492207
892.798618492
839.244131348
880.946319095
7.88351279831
12.2309904616
7.25616666299
11.2653514285
998.071189141
928.071841757
965.152292887
12.9238752188
14.0983145181
12.0172870646
12.244185595
1091.46660516
1014.28342973
1059.08132721
21.9157163301
9.32067872986
18.3337149288
7.50947790266
1152.17155892
1112.53865617
1116.91422172
1.96680003683
1.48304877967
1.53692053117
1.15237179694
1177.86466639
1132.16497124
1147.61746523
1.9288628149
2.3277844562
1.4760790417
1.77919576556
1176.86110271
1166.35515018
1164.61313356
6.64951179769
35.6686880001
5.48328599589
31.6475322763
651.590348287
654.882459951
4.35690442756
2.56455101485
2.99348604408
689.177122995
672.438446793
704.772366082
1.78650855893
1.59102845529
3.40730342175
4.65156428715
791.761451402
748.866706239
805.094507332
3.86956320868
6.52420018418
6.38445485463
7.88597764953
874.552931293
848.769831572
865.269706778
8.12120517107
10.7227804107
8.91094446231
10.4439008091
935.613011307
882.842731574
916.829190489
10.7921414827
10.8567560224
9.80945410481
10.295681744
1021.4521194
961.390232394
998.810916168
17.2541693341
7.15939663953
17.8051606519
7.62715468646
1077.18436586
1036.27758976
1042.24964466
1.36560244204
1.01858208789
1.60174852946
1.20290364565
1113.83652897
1059.68159817
1086.14286836
1.21226529475
1.41640780825
1.45096409161
1.8639367317
1156.08354989
1109.81822285
1134.54461125
4.60605141141
27.3410187766
4.62307306076
26.0104091072
804.237625454
796.082967242
7.52459116221
8.90871199632
7.80547379482
9.34174374416
858.95074953
828.748937564
850.229301998
10.2382155081
12.8790855585
11.6706357735
13.5707404832
907.815902618
869.998882443
908.047539157
14.4670760431
16.6727196946
15.9476545748
18.6653110695
987.699264581
960.917730511
986.220852802
20.4285682457
9.33715290145
18.4246041866
9.77011851602
1025.74701662
1011.22990471
1019.71136722
2.10990538674
1.43956641775
2.82024608085
1.88481190019
1062.91490794
1031.90747618
1047.09181161
1.6923545593
2.23098491458
2.52113766463
2.93502151631
1093.77135377
1052.89136815
1058.39698222
4.81601925886
29.7388574598
6.29635890554
32.3847576096
994.427533259
4.7945764184
1024.02310493
3.03309932817
2.18164773507
2.63096786442
2.06829796009
1043.46919406
2.7897892824
3.21562253529
2.92610015751
4.09000286245
1037.39115889
6.53440554493
37.9401738093
8.55860805898
38.4220925676
19543.7737698
19543.6481504
17952.8892502
17954.381418
19544.2544292
17955.7815802
19542.9844618
19544.2537672
19545.6852456
17968.0145587
18023.7369598
19544.3891141
19546.2003032
17985.4452707
19546.2875161
19544.5642452
17972.7834714
17963.2652715
19544.9625764
17981.7898193
19545.9720813
19548.134631
19549.7340157
18004.1260412
18032.8046752
19550.0105713
18002.8087879
19547.8299471
19546.5819048
19546.3580473
17973.5952709
18002.9378255
19545.1036979
19547.8086947
17989.9529829
19548.4371611
19550.7683095
18040.7426698
18020.9699879
19550.1758898
19549.2627131
18009.7900233
19552.5306919
19551.383241
18074.0648909
18061.9903867
19551.5106003
18066.8115767
19552.3067928
19553.2092573
19554.6088399
18098.4051631
18121.7756224
19554.1003628
18098.6404903
19552.5955831
19553.6824774
19552.4941718
18067.3452083
18102.6351409
19551.9571628
19554.2919404
18079.1395008
19554.6632655
19554.9957037
18110.6901715
18124.4297957
19555.0902934
19555.5216817
18098.3259
19556.131118
19557.2643396
18217.7234901
18148.2211578
19555.43319
18143.2811715
19559.2872054
19552.675313
19550.3672818
18136.6538764
17875.0992722
19545.4031183
18044.0737439
19556.9060774
19551.5316551
19552.9473924
18091.5231481
17986.8307976
19554.0212817
19548.3446954
18041.7003991
19547.5726913
19533.4248153
17742.7321578
17845.1005924
19540.2442176
19541.6553454
17920.0228951
19524.754195
19539.9492667
17437.4153838
17628.2733423
19535.8390639
17361.5987935
19527.8476129
19516.2564986
19515.5418149
17221.1722799
17004.1064178
19513.702611
17157.5625539
19518.0344351
19520.1643734
19524.5790335
17519.6076811
17233.2494147
19530.736539
19515.1209647
17288.8003391
19511.5744711
19508.6119257
17002.1064719
17095.6476923
19509.0043382
19508.5535198
17124.1051948
19517.983326
19515.7274077
17163.2935631
17050.4597037
19514.9321087
17126.4195663
19519.1025021
19523.0765288
19528.9744012
17216.39339
17238.4881785
19527.6600932
17188.4651707
19524.8912494
19515.0119459
19509.9199217
17043.859386
17108.4849598
19511.0236169
19513.7131356
17111.3216317
19521.3514854
19525.0101684
17222.9661479
17165.5216402
19526.900622
19519.9422005
17170.7348338
19533.690712
19531.8344764
17356.4202329
17278.538574
19530.7895161
17335.4024658
19534.6053402
19535.7853699
19539.0864046
17397.3827654
17397.5973992
19537.217456
17377.708632
19537.1989947
19533.6198741
19528.6328739
17265.2091078
17322.3092225
19530.3765725
19532.2237734
17323.335643
19536.0528194
19537.1195456
17382.4754719
17360.4715286
19537.6203243
19535.3735832
17365.1283497
19534.2987045
19538.912531
17440.7608725
17404.2962295
19536.4404976
17418.6147345
19537.459021
19532.5939039
19535.7672504
17444.9679812
17405.0472907
19530.1606155
17422.2007449
19536.959596
19535.3411297
19537.0566483
17387.0082272
17388.9712585
19537.157585
19535.4470961
17403.072901
19534.3808969
19530.6089193
17354.8338459
17364.4978483
19531.5827916
19534.1245966
17388.0629682
19514.6799269
19531.5370069
17274.8192635
17379.5482192
19525.288999
17256.9310361
19521.7028554
19495.205692
19505.2212245
16809.5979516
16839.073487
16797.54951
19501.1121196
19502.3309833
19515.2613356
19524.6341305
17324.9916444
17165.8080949
19526.1540121
19513.3890353
17200.7887673
19496.572713
19505.1516529
16855.161977
16714.0746731
19492.8121769
16747.6538406
19504.6979907
19559.1417321
19562.5760379
18392.3118758
18416.5632355
19559.3221963
18386.748069
19561.6790226
19556.8173959
19552.6579377
18310.7734898
18280.6435883
19555.9180224
19553.9999381
18344.3736686
19559.4854914
19559.5960263
18390.20265
18333.9521751
19558.3679725
18373.7069838
19561.0392575
19557.254909
19555.7755847
18288.4001932
18320.8605905
19554.9624681
19557.251561
18342.3252384
19549.822305
19549.9432462
18123.9296085
18217.3262697
19548.1680949
19551.7092565
18166.7729014
19548.5180606
19545.8429795
18058.1951719
18072.0509617
19547.0798832
19547.1928207
18114.1497889
19551.469197
19554.1638652
18237.8270966
18233.2051583
19552.9819725
19552.8375518
18202.2749853
19549.8326632
19551.4354623
18122.8403573
18204.6313754
19548.7167119
19552.0710792
18161.9769052
19548.5660394
19546.0683736
18028.8761909
18067.5258916
19547.4753341
19547.38257
18071.8649686
19550.0610257
19550.9329085
18041.2162543
18091.8116877
19549.1160191
19551.5975035
18080.5257915
19549.7105101
19551.2541055
18116.4250231
18154.9593353
19548.7875401
19551.8092245
18118.5376113
19550.9124746
19554.1635692
18129.0243534
18156.4999438
19552.3215535
19552.9363636
18122.629082
19554.813008
19552.8211212
18131.0723282
18109.864389
19554.906576
19553.2530128
18135.6261751
19556.140768
19556.4037588
18152.8994906
18170.1332432
19556.3466884
19556.4605546
18170.2928879
19555.1610233
19555.2543434
18139.6487822
18178.7879996
19553.7480679
19556.3805165
18157.8981981
19556.4319336
19558.2183411
18196.4040364
18189.8498024
19557.1885443
19557.5583211
18179.5451997
19548.1285072
19553.6669364
17984.2767989
18109.9882385
19547.3925234
19554.3752768
17988.1246496
19538.8478452
19527.7198844
17827.1347736
17616.5752901
19538.6683542
19527.6454823
17820.2572001
19550.1123398
19556.4037209
18135.7321938
18035.2485093
19555.3871145
19551.4967646
18006.9954549
19541.9385291
19534.0444091
17638.822567
17858.672852
19531.4951223
19543.8466974
17835.1209326
19507.4274488
19517.5418525
17233.5763136
17422.2465312
19508.4977117
19516.6657162
17240.0260041
19501.7866107
19504.1227292
17108.9776848
17043.1590788
19503.2034931
19502.3274104
17119.2787075
19512.1813791
19524.0517661
17449.6863987
17289.1614577
19521.3654802
19514.6042997
17276.4361986
19505.9197723
19507.8850233
17079.927794
17186.5961118
19505.9157555
19508.4446526
17159.3679774
19509.360605
19506.5768363
17117.3711298
17072.9129684
19511.290574
19504.6399185
17128.0137171
19514.6664565
19522.1734044
17168.1680454
17219.5614866
19516.7430342
19520.4399324
17175.189924
19509.9797705
19508.382014
17099.8237842
17154.8896083
19507.0691471
19510.5206854
17144.5474214
19514.6725396
19519.9748243
17225.0947731
17195.7142079
19520.0922255
19514.8093876
17186.1905867
19529.8229284
19526.6893971
17315.3378412
17259.0680916
19531.0797641
19525.2880863
17314.2231585
19533.3939662
19536.0912343
17347.9420336
17360.1113694
19534.4851435
19535.8886094
17347.8806726
19529.8917991
19524.8979662
17262.5762986
17323.0884958
19525.0189827
19529.692515
17314.2519285
19533.9432916
19536.7010987
17363.3601952
17359.0121959
19535.963668
19534.2008404
17348.5111833
19535.9306039
19536.1688651
17378.7991835
17364.8965255
19534.9536775
19536.434607
17378.0792417
19534.2999595
19529.4357508
17344.3839747
17271.9643288
19533.3259951
19530.365361
17336.4627759
19535.9058033
19537.211036
17370.1625865
17393.8241935
19536.4501175
19536.7563005
17383.5186005
19534.1112225
19531.1332702
17276.8479569
17353.9236537
19530.0385237
19535.1264103
17341.1311684
19513.5825477
19523.3558154
17149.3681022
17238.6403782
19512.2849096
19524.2322217
17130.3601973
19492.574798
19504.9679402
16726.3129333
16835.6531692
19490.9762067
16716.9557351
19507.0281041
19512.9775881
19524.8197821
17245.00203
17146.4121009
19523.753189
19513.7610613
17138.8238396
19491.8599118
19508.3400456
16850.9416364
16736.8105003
19493.0690171
16737.6145411
19507.0623663
19558.3138822
19559.6386777
18308.8326181
18308.0363416
19558.1641206
18301.6680795
19559.3829917
19557.3728735
19555.8919229
18303.5384219
18292.5199196
19557.0404895
19556.4331381
18295.9238211
19558.1835518
19559.3647893
18306.1050256
18304.3021693
19558.7162786
18299.7030312
19559.1845483
19557.4933629
19557.5621758
18296.2596867
18302.7700121
19556.8596191
19558.0442072
18295.627973
19554.8356718
19554.7763065
18250.6557608
18288.2003892
19553.8979055
19555.5182021
18280.5697238
19554.403571
19553.1979995
18240.5535162
18257.4111327
19553.4269579
19554.308133
18268.8207237
19555.6191641
19556.9403762
18295.2957151
18286.7325788
19556.2187691
19556.4688541
18289.5331987
19555.3132927
19556.4564787
18266.3702094
18288.0008752
19555.4031332
19556.2809032
18277.4689601
19554.772297
19553.1580934
18192.971499
18247.6587105
19553.6810683
19554.6500879
18233.4937699
19555.2524434
19554.9095776
18186.7352894
18208.1826945
19554.2997513
19555.9100236
18213.198939
19555.7680165
19556.5757473
18259.2517829
18256.940903
19555.6183509
19556.8382546
18249.7919849
19556.060262
19557.4680897
18221.5566355
18248.4602555
19556.6060542
19557.1690401
18231.4831901
19557.2910581
19555.7557477
18192.7844786
18209.9751042
19556.9679087
19556.6851794
18212.1137944
19557.3101887
19558.0396226
18198.0438145
18212.4155753
19557.6981551
19558.0217075
18212.4244997
19557.4816998
19557.5286217
18219.6999643
18228.9357755
19557.2051039
19558.033068
18219.0705596
19557.9266605
19557.3278479
18210.1703586
18219.7323306
19557.9423168
19558.2058257
18218.6297137