/*--------------------------------*- C++ -*----------------------------------*\
| =========                 |                                                 |
| \\      /  F ield         | OpenFOAM: The Open Source CFD Toolbox           |
|  \\    /   O peration     | Version:  v1906                                 |
|   \\  /    A nd           | Web:      www.OpenFOAM.com                      |
|    \\/     M anipulation  |                                                 |
\*---------------------------------------------------------------------------*/
FoamFile
{
    version     2.0;
    format      ascii;
    class       surfaceScalarField;
    location    "8.65";
    object      alphaPhi0.water;
}
// * * * * * * * * * * * * * * * * * * * * * * * * * * * * * * * * * * * * * //

dimensions      [0 3 -1 0 0 0 0];
oriented        oriented;


internalField   nonuniform List<scalar> 
92311
(
0.203958722525
0.000125091317409
-0.00101276818444
-0.203878352844
0.000808064288871
0.000118904658579
0.203916347659
-0.000602298893013
0.000526150505457
0.203952948046
0.000463547177518
-0.0010463702968
-0.204032047119
0.000787283537735
0.000340699091813
0.20385066754
-0.000619903850093
0.00050063521381
0.203843808569
0.000307506958698
0.000345542393832
-0.00106880718011
-0.204304015098
0.000678979705676
0.0003229747515
0.000337635893403
0.00021342180422
0.000120911137178
0.000150190076818
0.203662924797
-0.000594402883579
0.000406447728455
0.000225071678612
0.0511179777363
0.000131541412422
0.000159635939464
0.00014135544168
0.000152817092861
-0.00039994214218
-0.0512848015758
0.000288854389931
-0.0509936272002
0.0508986017047
8.30751818844e-05
9.73848401969e-05
0.000109591304224
7.24381872897e-05
-0.000275446164129
0.000221304004133
-0.000149138981042
1.12704046722e-06
-0.000152557552736
-0.000148929969591
-0.000151568583968
0.00029370767838
0.00030585243002
-2.64514936612e-05
-6.38964291421e-05
-0.000213015852536
-7.18097201396e-05
-3.09649858075e-07
-2.08933286496e-05
2.19181848991e-06
8.64067195011e-07
-1.18110881738e-05
-9.67274849206e-06
0.000323333357035
2.79996080402e-25
-1.56756261059e-07
-6.39934725139e-07
4.60763648176e-08
-1.23298779182e-06
3.7185860733e-06
5.23321209206e-08
3.2268587437e-07
0.000143417635063
0.000130491339968
0.000140042058555
0.000134923937855
-0.000304858618543
0.000225799577197
-0.000187609164479
0.0103264065643
-3.09740270141e-06
7.67116891116e-06
-0.010334608689
0.0103500216582
0.000106093395838
-0.000163685430524
-0.0103370411561
-2.38298338216e-05
3.39157980414e-05
0.000165551800103
3.94094289228e-05
0.0508824456036
2.6518098099e-05
6.3396492383e-05
5.29481024517e-05
-0.000210784500445
5.37628728008e-05
0.0508543043537
6.02634265811e-05
7.40142780973e-05
8.01423899766e-05
-0.0508804845837
7.36915238876e-05
6.3189710947e-05
-0.000128897378083
0.0103749822227
-3.25979484682e-05
4.44924274989e-05
5.20826866727e-05
0.0126485029966
-6.08071854169e-05
4.07246988834e-05
-0.0126418272872
0.0126438378712
3.85811719421e-05
6.24213691501e-05
-0.012640182225
-0.000144586333792
0.204303060874
-0.00188266213117
0.00158282450681
-0.203859066831
0.203928268063
5.03440223317e-05
-7.83435350871e-05
1.5935010296e-05
-3.14976659819e-05
0.204010544064
5.63184160699e-05
-0.000107188136947
-0.000147424968098
0.204468299213
-0.00193151160999
0.00167295987872
-0.204206799741
0.20393509233
0.000116183598028
-0.000219260452911
6.89570825347e-05
-3.35934037019e-05
0.204081586502
2.09613898434e-05
-0.000165700375941
-2.7721521131e-05
0.000159592418951
0.00018675638844
-0.00204706681293
0.204833618781
0.00174432014115
-0.205005441632
8.51659309993e-06
2.451662386e-05
-4.17262296359e-05
4.22983934648e-05
-2.80695379308e-05
0.203940252806
-0.000187910552369
2.97322515278e-05
0.0515965023644
7.86779702781e-06
-7.45184443863e-05
4.32688136102e-07
-6.39758589643e-05
-0.000599930548129
-0.0515179404323
0.000623892958065
0.0509318105416
0.000132876613732
2.62067229839e-05
7.2816785994e-06
-2.4154845333e-06
-1.35275934742e-05
-0.00017521637385
-0.000138628341549
2.87122261324e-06
-0.000367234637958
6.50266052609e-06
4.43762592395e-06
7.10866785913e-06
6.37572911784e-06
0.000228172492269
1.1325430406e-06
2.2003293958e-07
1.41417592375e-06
-2.09735690842e-08
6.25011133977e-07
4.33288811097e-06
-5.51058986282e-07
2.07055951358e-07
0
0
0
0
1.79914572229e-28
0
1.22893738934e-26
0.000529977202492
4.48608510062e-05
8.76450235078e-05
3.89386328303e-05
8.9762572413e-05
0.0514544447922
-0.000489551541532
8.0098531039e-05
0.00012126395688
6.29345582645e-05
0.000107271738569
0.0513709244653
0.000480070098777
-0.0515059640452
2.12074039999e-06
7.19193391562e-05
0.0102954447005
4.51592295823e-06
-2.52516920337e-05
-0.0103613293996
0.000103222481856
-0.000113726878736
-0.0102072409643
7.68884905381e-06
-2.79531371723e-05
0.0102131226664
0.000117267094851
0.0128419271443
-0.000146000875903
0.000133903045721
-0.0128674555226
8.18260461323e-05
-8.62204458279e-06
-2.73095253405e-05
-1.74732230555e-05
-1.9558112757e-05
0.0510209704036
-0.000139625091131
0.0508645646113
3.77204352183e-05
2.32929181403e-05
4.50372279371e-05
1.0285863745e-05
4.86051924871e-05
3.45840152275e-06
-2.07568520143e-05
-2.84934639516e-06
-1.87689685141e-05
0.0509503741954
6.85833137502e-06
4.253514933e-05
-5.63917977626e-05
2.44865089058e-05
0.0126635882727
-7.95069723666e-06
1.76995066352e-05
-0.0103446386888
-0.000116394687591
0.0103209906772
0.000141816627598
2.96891968566e-05
4.10569014325e-05
0.0126523905983
-0.0126581919982
5.28581091499e-06
0.012669972699
-1.35858514311e-05
-2.01608017953e-07
0.000155126339263
-0.000122182060026
-0.000109194789418
-0.000119167465331
0.000386923079289
-7.61481227038e-05
-1.97166620342e-05
-1.73738428853e-06
-2.61207983199e-05
-2.84551513876e-05
-3.7101584894e-05
-3.75171565545e-05
0.000474072760687
0.000109704941452
-0.00048690665527
-2.54985686096e-06
-2.92568987788e-06
3.78314484376e-06
7.55156545641e-07
6.21622588704e-06
-5.63411405797e-06
-3.8652450515e-06
-5.33480759506e-06
-3.93095923179e-05
-6.07714046955e-05
-3.95526852599e-05
0.000388753090982
-6.48763486087e-05
-5.79438802112e-06
6.37800030605e-06
6.19534640482e-06
9.4029150759e-05
0.0127684092924
-0.000112726696778
-0.0128065091397
-0.012761449042
0.000211068104945
-7.98696089647e-05
0.0127290792226
6.00681135417e-05
-1.00531858431e-05
-0.000205672350906
0.0103258317558
1.45786455447e-05
-0.000198094278748
0.0103648088469
-0.010372356624
1.12991345355e-05
-0.0127962938233
7.13001740283e-05
0.0103713974051
3.85355380687e-06
0.0127328994963
-9.7781465682e-05
0.012697577635
0.000192719072825
-7.50721407285e-05
5.65602920573e-05
7.31545488916e-05
-0.012698245268
0.012675056174
-8.42858134089e-05
-1.61950614672e-05
-0.000185865295517
2.2604351269e-05
-0.000176946472842
-0.0103828479482
0.0103842727374
-2.64157705135e-06
0.0126743826881
5.84967630571e-05
-1.33164777573e-08
-9.21020524558e-05
-0.0126499905683
9.27091362358e-05
-6.91071646167e-05
0.0126464063981
6.18452132911e-05
6.50912975501e-05
0.0126502406474
-7.30994950792e-05
-3.38208830277e-05
-8.16606606998e-05
0.01037593268
5.21483356999e-05
-0.000142972217643
0.0104072447659
-4.69497670662e-06
5.48039305625e-05
0.0104119779444
-4.61178223057e-06
0.0126452265155
-7.42292037887e-05
2.28659077299e-05
-0.0126413363071
0.012648733073
-6.53115652426e-05
-5.11072096902e-05
-0.0103889510154
0.0103864811158
7.30154520229e-05
-0.0104251432676
-1.69418425773e-05
0.0104179185103
7.47292252213e-05
-6.11872979777e-05
5.35098997403e-05
-4.56498247263e-05
-6.12050350326e-05
6.36038081392e-05
-1.30371100787e-05
-6.63026210869e-05
7.36070124654e-05
-0.0126366324217
0.0126394741087
2.13064780135e-05
1.00275253077e-05
-0.0104565690339
0.0104422469983
-0.0104926631135
0.0104800999762
4.51432099921e-05
3.79792908466e-05
9.66629554343e-05
-0.0126483477883
-0.000106776121142
-1.27125065424e-05
-0.0104809626831
4.85573910071e-05
-0.0126482691382
2.1879750163e-05
-0.0104470837236
-1.6317242712e-05
0.000259351009859
-0.000106621103
-0.000122817952296
-0.000114577368616
-0.00010412857977
-0.000557117988385
0.000879073081536
-0.000176728895266
-1.21429000973e-05
-1.46868153831e-06
1.65933180788e-05
1.44218191189e-06
-0.00110622467666
-4.27582484861e-06
-3.80954628345e-05
-5.67101342766e-06
-3.81786550972e-05
0.00021298962246
-0.000146838670611
0.00104895683905
-1.09213592805e-05
-8.31293232477e-05
-9.45175212375e-05
-8.29665918401e-05
-0.000884352920403
0.000327175883871
-2.05181007897e-06
-7.20234915531e-06
3.9839645599e-06
1.21778515857e-05
-6.91260796171e-06
-1.01533775893e-06
-8.96774305631e-08
0.000338313984251
8.94338957841e-07
-1.31345507717e-05
1.16185345217e-06
3.81150185001e-06
1.51287341809e-05
-1.61687716033e-07
-5.26419081093e-06
4.47345242927e-07
-6.65984356172e-06
1.47780557373e-06
1.55992556218e-06
0.000218275195403
8.54039613279e-06
1.17996501733e-05
9.76392957206e-06
9.49948259382e-06
0.000138591969137
-5.78914847396e-05
4.74864001207e-08
-7.00891408063e-06
9.18531250143e-07
2.33447182756e-06
8.16685586848e-06
9.31653657184e-06
8.63121180504e-06
-0.000423250501975
0.000217671889657
-6.32799560689e-06
1.7476773822e-06
-0.000145486513788
-0.0128937127024
7.12015129404e-06
0.0128785609618
0.000161204601196
0.0129052161951
0.00014838104408
-0.000135481961614
-0.0129199432205
-4.86860243094e-07
6.64932580632e-06
0.0102514357206
-2.55664000019e-05
6.37279587553e-05
0.0103127320763
-0.010376583695
-1.40912727775e-05
0.0128903169662
-0.000131151198447
-0.0129058043223
0.000160814821294
0.0102701220387
-8.84702292836e-06
-0.000132702077906
0.0128529177455
5.41694545915e-05
0.000148300779073
-0.0128674453892
0.000122399159672
-0.000110015008942
0.0128285177393
-4.73932602635e-05
6.28657136795e-06
-2.70112809783e-05
-0.000110234215598
-0.010221628018
-4.46827614688e-06
0.0102203792722
-0.000118910594057
0.000136605126539
0.0128175591116
-7.95039130632e-06
0.0102855612919
1.67136510136e-05
-1.14414691375e-05
-0.0103227157257
-0.000164453403899
1.05609585629e-05
0.0102860876013
-6.61352491977e-06
-0.000133988310725
0.0128089559047
0.00012297545865
0.0128498109712
9.01470908363e-05
-0.0128755251764
-0.000143020657209
-0.0102493735125
0.0102461868795
0.0128159094886
-0.0102963629606
4.31653938953e-06
0.0126643333621
-6.93623066236e-05
-6.75626984514e-05
0.0103837391326
8.86262432086e-05
0.0104078574413
-3.41838810377e-05
-5.24931671718e-05
1.47316982619e-06
0.0126754408092
3.67142323058e-05
1.5065432359e-05
-8.23531622368e-05
0.010364756374
0.000104802125118
0.0126794769316
-6.56844161181e-05
0.0103846338512
-4.74553059891e-05
-4.65419867787e-05
0.0126917563992
-5.81721857644e-06
2.77221904532e-05
-0.0126982732895
4.19102552684e-05
0.0127132876615
-6.53850473989e-05
1.47015135886e-05
-0.000100871848473
0.000125089208153
1.28316938106e-05
-0.010362814849
-8.39718699113e-05
0.0103343691361
-6.73556634587e-05
2.03344296348e-05
0.0127074966428
-6.91237242236e-05
-0.0126432317501
2.32042432036e-05
-2.39084578592e-05
8.46594214655e-06
5.60330770807e-05
1.39351264344e-05
-4.04236350091e-06
0.0104393881298
0.010467522663
2.96953989477e-05
1.67241163165e-05
0.0104448654779
1.72584915586e-05
8.67435764314e-06
0.0126664492489
0.0104154523181
0.010426014757
3.70454817766e-05
-7.15047164813e-06
2.4319495993e-05
5.50582288049e-05
0.0103915341083
-2.74023405225e-05
-1.89695610523e-06
0.0126877646309
-1.18126000494e-05
0.0126800389343
-2.34107246769e-06
1.69095680064e-05
-0.0103897631364
0.0103536311955
0.0126969447727
-8.14804911141e-05
-6.25299870227e-05
-7.73707449158e-05
0.000130337871713
0.204377204035
-9.18683542828e-05
-0.000287762003224
5.6891683987e-05
-1.74638839533e-05
-2.64864993851e-05
-2.76853939474e-05
-1.5365569348e-05
-0.000120572484433
0.0510902427854
7.92644742175e-06
-0.000281332866499
1.55969670195e-06
7.74923886955e-06
7.7364376204e-06
7.2332483173e-06
0.000238770098455
-0.000423455434335
0
0
0
0
2.9083670364e-29
0
1.73633889832e-27
0.000126563566971
0.000119792837062
0.000105943210791
0.000141545865668
-0.000264120508244
-0.000445139359967
0.0511862726567
0.00013133291456
-0.000168891364659
8.62449524047e-06
0.0102843708104
0.0510459482077
-1.52447513767e-05
-2.01764018727e-05
-1.56078281554e-05
-2.37699255976e-05
-2.63799869319e-05
0.0510792380217
-9.44554330457e-06
-1.0945792129e-05
-2.35988680535e-06
-1.86393786873e-05
-2.65573085957e-06
-6.66734841709e-05
1.51744801905e-05
0.0102987168097
-0.000124088102223
0.000149483208634
-1.24599781513e-05
2.98157408492e-05
6.91711977446e-05
0.0103558095052
-4.2411128985e-05
0.0102778101707
-6.99890037729e-06
6.34674220067e-07
7.84194110878e-05
-0.0102987904429
-5.53801646334e-05
0.0510642556013
1.87246500151e-05
3.28187565256e-06
6.91867080774e-06
1.52194411693e-05
2.42389951459e-05
3.06299812845e-05
-8.41895838979e-05
3.31817481139e-05
3.71181704844e-05
3.72930333512e-05
3.08227407366e-05
-3.39169599715e-05
8.31235573918e-05
0.0509896299498
-0.000113193456951
4.15822960014e-06
-1.39975403498e-05
7.79727919305e-05
0.0102528621479
-5.97953507473e-05
2.59572217929e-05
-5.45488944136e-05
9.24358240469e-05
-0.0102150406645
0.0102202325866
-8.42598435302e-05
-0.00011762430587
-0.000139487622146
-0.000119432207092
0.000448501800363
-0.000268776568586
-1.16246020339e-05
-2.08839225425e-05
1.58319503926e-06
7.85839440091e-06
1.29460266121e-05
7.62834258165e-06
-0.000162591927122
4.38351674237e-07
-0.000123282174189
5.5368680602e-06
8.62433428784e-06
6.83895677123e-06
0.000372929516007
-0.0002857625149
1.30297478803e-07
8.48603820369e-07
-4.21241043303e-06
-5.06640766409e-06
6.9531355554e-07
9.71607679211e-07
-2.79153883601e-06
3.45236691127e-08
-0.000196983542941
-3.99606143531e-07
-9.5372050342e-06
-4.26812010906e-06
0.000400046023541
-7.9568989345e-07
-0.000294002086655
-1.50851795807e-05
-2.82415245844e-05
-1.535657353e-05
0.000296928814356
-1.34008319219e-06
-0.000208000038542
-0.000226056763691
-0.0127751476549
0.000161335840647
0.000109165246801
-0.00010991921754
0.0127407359559
-0.000123211910541
0.0127696133576
-0.000148647582698
0.0102505744852
2.91912414676e-06
1.30677694805e-05
-0.000188577077333
0.0102875359722
-0.000125615037917
6.83349227596e-06
0.0102611523338
0.0127333124621
-2.80898648955e-05
-0.0127206182441
1.80965036591e-07
3.66180027721e-06
0.012728318742
0.0127265478641
3.45413104625e-05
-5.76618827994e-05
1.00614670524e-05
-0.000129066959315
0.000152741016055
0.0102811223554
3.13170202901e-06
0.0103120495492
-9.21496679129e-05
-4.99003995965e-05
0.0127318222288
1.0632727084e-05
-9.99090295513e-05
0.0102935138535
-0.0127129273317
-6.87602471433e-06
-1.28714607585e-05
0.0127215916286
8.30769912156e-06
0.0127108906427
-2.08308528418e-05
1.19673331384e-05
0.0103273002043
8.02105062183e-05
2.54566463287e-05
0.0103262535708
-5.55056877117e-05
0.0103107788855
0.012723699864
-2.3252947849e-05
0.0127301440142
-4.29323892167e-06
-1.194120198e-05
-1.66134999752e-06
9.11485862399e-06
-0.0127319441997
0.0127315767349
-1.95304471981e-05
-4.94205046004e-06
-0.0102915812539
0.0102759916748
0.000100942281391
8.01103539002e-05
1.56139583131e-05
-5.8493737765e-05
0.012732397851
-8.36220996379e-07
0.000101231445392
-2.29312220383e-05
-0.0127292746012
2.91852398042e-05
-7.4865651046e-06
0.0127180891508
5.79971975663e-06
6.65726200356e-06
0.0127269312462
-1.40157910183e-05
-1.42036447475e-05
0.010256562098
9.65902951247e-05
7.86046784105e-05
-3.11015307665e-05
0.0102313264539
-6.32863420806e-05
1.14484589155e-06
0.0102414331506
9.7471668277e-05
0.012715440047
-1.41762727272e-05
0.0127002745044
4.33148274586e-05
-1.00605617312e-05
1.44233679901e-05
1.29443627429e-05
-0.0126950592984
0.012676120251
-1.58388700261e-05
-4.37376340962e-05
-0.0102323972898
0.000104029724531
0.0102398808719
8.57738786803e-05
-5.21153396009e-05
-7.53422937089e-05
2.11445114885e-05
0.0126813461007
0.000101153844276
-1.43562331615e-05
-0.000528954860529
-0.049582968927
0.0493794967088
0.000603023047655
8.25214204703e-05
7.59180211633e-05
8.86379516875e-05
6.90145850413e-05
-0.000187023763284
-0.000592898309554
0.0498371759725
1.94347617334e-05
2.75662165942e-05
3.00447826745e-05
1.83108569384e-05
1.77926163985e-05
-0.0499041130026
0.000546679718645
-0.000927593713451
-0.0498592938561
0.0499343348569
0.000807027757021
-4.445893825e-05
-2.76902589878e-05
-3.7590748767e-05
-3.76243658008e-05
0.000192812701601
-0.000715349602774
-6.57856909267e-05
-5.43076268288e-05
-6.19330502628e-05
-5.73228030722e-05
0.000277954488018
0.0501036529983
0.000652607766991
-0.0500795907149
-6.28536151021e-05
-0.000104606587606
-0.000293062862912
0.00043489856153
0.000189308989345
-3.98663610775e-07
-6.26442608896e-05
-5.7361049874e-05
-5.69558489658e-05
-6.14978395712e-05
-0.000558936772075
0.000580753086749
0.000344474931104
-1.65285857202e-07
-5.29427331446e-05
-4.1845337276e-05
-3.14242530239e-05
-0.000210226345491
-3.50548791028e-05
-0.000235606226405
0.00028181756555
-6.10702436412e-08
-2.7675410308e-05
-1.37674032356e-05
-9.94337828903e-06
-0.000201130905261
0.000199711128089
-1.77111350933e-05
-0.000323987418153
-0.000362053295757
0.000389928463824
0.000185887151821
2.84127460667e-06
-2.26972050848e-06
-4.37584133039e-06
5.91946483022e-07
2.53270272235e-07
-3.66125795757e-05
4.80204701338e-07
4.74333792307e-07
1.42169632372e-06
0.000243611183975
-0.000107505138526
3.64545819657e-06
-0.000247036095596
0
3.54552605811e-30
0
0
0
0
-1.64000106472e-28
1.43961850256e-26
-6.90355826642e-08
1.86132841301e-08
-4.26663062397e-07
-3.87196353671e-09
-3.49287196243e-07
4.59381582388e-07
8.35781766262e-08
0
2.70266221871e-30
0
0
0
0
-3.47566335738e-27
-2.41557122898e-08
5.53639610349e-08
-1.30390029949e-07
-4.33399575443e-09
-2.94654997569e-07
2.7447776554e-07
0
2.37204804229e-11
3.85949036165e-11
0
5.26699913303e-28
-6.23153840395e-11
0
-3.70476423843e-08
-2.63677419842e-07
-3.29855212027e-08
-2.11712284648e-07
8.43291793437e-08
-9.7742176565e-09
0.000185572382098
5.73099221029e-05
6.83032303364e-05
7.21561637382e-05
5.06564829809e-05
0.0492773976931
-6.6578405348e-05
-4.37629160507e-05
-0.0496010968103
0.0492464471417
0.000344442351931
5.8719260873e-05
8.17476039416e-05
7.39624171613e-05
5.68396498073e-05
-7.36798099055e-05
-0.0496029845621
5.38508807095e-05
-8.31852232282e-05
-0.0114793442923
3.46266771375e-06
0.0114780965129
1.43034722971e-05
0.0114923133662
5.72778366279e-05
5.71811012853e-05
-9.33568867578e-05
-3.92848916804e-05
-0.0114877027906
0.000109020026595
9.31969884849e-05
9.83701229368e-05
0.000109391497761
-0.00030912766898
0.012285572736
0.0122134684456
0.012178604856
0.0121632705212
-0.000224440614072
6.91435794909e-05
6.10708604333e-05
-9.98932277739e-05
-4.72154948686e-05
0.0114968346766
0.000414662703778
5.26305334801e-05
7.57470033959e-05
5.59571390146e-05
7.04315819295e-05
-0.000165971588143
-0.0497420251536
0.0497349417224
4.52236437891e-05
5.22429097811e-05
6.02554085798e-05
3.90253790748e-05
-0.000152565750581
-0.0498329568012
0.000468467768369
0.0114942404208
5.83947397387e-05
-9.01278272589e-05
-0.0114867411905
6.89266719895e-05
0.0115209993615
3.58217774272e-05
-5.77205408943e-05
-8.15846489005e-05
-0.0115132606842
8.60599083589e-05
0.000829546853509
8.01694477893e-05
9.97278892708e-05
8.82010480748e-05
8.74926127124e-05
0.0491474697353
-0.000199241698071
-0.000158069390788
-0.00018672172115
-0.000152099769048
-8.08143851172e-05
-5.66287496495e-05
-6.63788951914e-05
-5.33563269061e-05
0.0495785205087
6.86393473873e-05
4.83539248937e-05
5.91835333472e-05
5.54261792129e-05
-6.52414211994e-05
0.0495813196664
0.000751723175119
5.44352190579e-05
3.91199569515e-05
5.2464911414e-05
4.23067149948e-05
-0.000113529046783
-9.66921782922e-05
0.0115025920026
8.33918457614e-05
0.0115255788869
7.11145636602e-05
-0.000114013439778
-0.011520982836
0.000144439896674
-0.000123865967487
0.000102787272607
3.48667316178e-05
-6.18366308301e-05
-9.86559996421e-05
0.0115339448299
0.0115768308692
0.000155458298883
2.44957110012e-05
-4.43740958758e-05
-0.0001577656086
-0.0115629129608
0.0496636905302
9.24508299065e-06
4.73532234205e-06
1.68483783157e-05
-6.15463565678e-06
-0.0010303139995
-4.50731328507e-06
0.00114677651217
-3.28802630262e-05
-6.29506484973e-05
-5.0558659319e-05
-4.63493387992e-05
0.0502154807827
-4.56037439326e-05
-0.00146024440103
-9.44790171559e-05
0.0115197223356
0.000162100113601
-0.000141080289155
-3.43823776183e-07
-1.12176590333e-05
-0.0115009583418
0.000226138074552
0.0114950879969
-0.000221774598432
0.000166866724206
2.41430324251e-05
-1.34086201983e-05
-0.000175068344069
0.0115673172918
0.000171137995383
-4.13401515151e-06
9.63097715811e-05
-0.000202394179674
-0.0115270205844
0.011476749789
0.000673868133332
6.25511491825e-06
1.07291215603e-05
1.59314519317e-05
1.18777757773e-06
2.15786409917e-05
0.0499984318735
-6.58713125326e-06
-1.73380866407e-05
-1.27281486074e-05
-1.39889151348e-05
7.37633378938e-05
-0.0499677461603
0.000620017068885
-5.20757115603e-05
0.0115521437492
9.80622381613e-05
-0.0115382726398
0.0115932114485
1.66981431042e-05
-2.19336991646e-05
-0.0115827212726
0.000144404877128
0.0116222429148
2.83817958705e-06
1.49065408492e-05
-0.000117244056666
-0.0116268751283
9.95084924152e-05
0.000930581053363
-8.7420734902e-05
-9.80428872045e-05
-8.35759730509e-05
-9.96532587142e-05
0.0502118305228
0.000307373488353
0.050055738939
-4.94605114883e-05
-4.40668964726e-05
-4.27111833026e-05
-5.08131343175e-05
0.000221393508941
-9.28969193315e-05
-0.000113916183491
-9.35160404141e-05
-0.00011145680529
0.0502469538936
0.00076814630666
0.000382955513008
6.84837789567e-06
0.0115797948024
0.000150579588163
-4.46873089966e-06
0.000106651567201
-0.0115234737538
0.000146213977212
0.0114617772413
9.53513854663e-05
4.365897633e-06
2.80737579626e-05
-0.000115795108385
0.0116013233119
8.75181420197e-05
-3.98598018867e-06
0.000117259522085
-0.000107483854522
-0.011519015663
0.0114397878626
3.70690699426e-05
0.0115926426486
7.34639632194e-05
-0.0116145021128
0.000133647424792
-0.0114959024931
0.0114087121201
-6.22863031308e-06
7.69518731737e-05
-2.02330221988e-05
-3.99740912251e-05
-6.53554075653e-05
-4.65502463934e-05
0.00030347951507
8.76120094906e-05
-0.000164469745371
-5.98024067187e-07
0.000312510781146
5.04597232704e-05
-5.31628520608e-05
-4.65251702681e-05
-4.09487567134e-05
-0.000183541089168
-5.50732965032e-07
-4.37543571547e-07
-6.8516376361e-05
-6.91196834187e-05
-7.12548316327e-05
-1.33691693781e-06
0.000471259400844
1.57260774352e-07
-3.99238177655e-08
4.61007299323e-07
4.05286723375e-08
-2.07063794127e-07
-1.91801897658e-10
1.4054681045e-07
2.48712735947e-07
-8.70844207853e-09
1.7929407118e-07
-5.58702304521e-08
-2.14764996651e-07
1.77355807019e-07
-1.35650450563e-08
2.65892361795e-07
2.41877062155e-07
1.92926111858e-08
3.48097638353e-07
-4.59584615045e-08
3.1778866061e-07
5.46340448866e-07
2.52739576077e-07
-1.53831138912e-06
3.62200959194e-07
-4.24831365908e-08
3.07336165028e-07
-5.75985985468e-08
1.30972622374e-06
-6.62951645309e-08
0.000127698975694
-5.38437474017e-05
-4.75045237965e-05
-4.02218974101e-05
-5.13833214803e-07
-0.00017658845509
0.00023363462871
-5.44150565034e-05
-3.04934307951e-05
-4.65446896082e-05
-0.000131341053019
-3.65740227372e-07
0.000175456346844
0.000274871314641
-2.25696976951e-07
-7.29180832265e-05
-5.8466678905e-05
-5.73720515401e-05
-0.000160954272383
0.000347829540782
-2.47839377995e-07
-5.77237196445e-05
-3.29616230602e-05
-5.46841657591e-05
-7.59712713562e-08
0.000440257904141
0.000291936513202
-3.87659572045e-05
-3.6982780551e-05
-5.50574220119e-05
1.68277448096e-07
-5.79258378787e-08
-1.97864442592e-07
-1.7374603386e-08
1.62714229478e-07
1.31619006631e-07
-4.72871602404e-08
-1.65494038236e-07
1.15302824338e-07
-2.24152851966e-08
0.000359995579075
2.36927976441e-06
-2.32657438085e-05
2.74395614632e-06
-8.67463476925e-06
0.00040793019198
-0.000240699636007
0.000454959169805
6.5531090135e-07
-3.54484394622e-05
-2.53257509414e-06
-1.88394524343e-05
5.1845273146e-06
0.000293878322068
3.25530123267e-06
1.69832604739e-06
9.76081494078e-07
0.000330957517824
2.89238382745e-07
-3.43784563059e-08
-1.07092331152e-07
1.44122990127e-06
2.52723553991e-07
-9.6718231833e-08
-2.70583174928e-07
1.84038605655e-06
0.000200150153302
4.06679839628e-07
-2.74899965469e-05
-1.81913532457e-06
-1.13648057206e-05
1.62239481704e-06
0.000329437538485
-6.35657123636e-06
-5.93712087991e-06
-1.1094546857e-05
-0.00026308161933
6.66088237128e-05
1.0166725619e-07
-1.21656502369e-07
-5.2067986065e-08
-3.8089766666e-08
1.11964431358e-07
1.94456300021e-07
-1.51305824207e-07
-6.24109845208e-08
0.00013404948827
6.50727267512e-06
2.11320008685e-06
4.40222986374e-06
2.08276124044e-06
0.000310113121436
0.000362352198657
3.11232550868e-06
-3.88606493041e-06
-1.57255208704e-06
7.83682945219e-08
6.92852471262e-06
3.7550316308e-06
1.03116174427e-06
1.46746472345e-06
0.00028292226399
-3.85025373729e-05
6.36642701779e-07
-9.31919108088e-08
-2.788815022e-07
1.87281344278e-06
5.23880825681e-07
-1.0977211239e-07
1.74150861202e-06
-2.8413005593e-07
0.0124561197417
6.72738176386e-05
-3.11496988663e-05
4.40691947279e-05
-0.0124789515239
3.96716529142e-05
-0.0124512650282
0.0124114442023
-1.47822892856e-05
3.14946369004e-07
-5.79659811164e-05
1.48069329666e-05
-0.0114853103455
-9.24845837764e-05
-0.0114888102891
1.86412259314e-05
0.0114858817168
5.79421889394e-05
0.0124175298145
1.38609174522e-05
-0.0114895825498
-1.2266400179e-05
-0.0124773974761
0.0124594438686
6.31851498486e-05
6.39622099891e-05
-0.0124837645529
-7.77124108942e-05
-0.0124674804891
0.0124412177616
9.22913578803e-05
-8.70889445561e-05
-0.0114897862934
0.0114893331429
-6.45875942344e-05
-3.03205677306e-05
4.39607470142e-05
-0.0114949215489
0.0124265045036
7.75732592309e-05
-0.0124895965089
-0.0114922340835
-0.0123960150654
0.000108115633459
0.000118947657332
-8.39372073779e-05
0.0123617564961
-8.58677791899e-05
0.0124129127393
0.000107318801529
-0.000106642941357
0.0114915291078
-2.70809270155e-05
-0.000116347064894
-6.30993478534e-05
8.57074690737e-05
0.011507856928
-6.38186132317e-05
0.000128295792369
0.0123856286315
-3.68574638133e-05
0.0114974778484
-8.4411702478e-05
0.0124957717579
5.77970557706e-05
9.24733070061e-05
-0.0125089137748
-0.012481909079
9.88352877421e-05
0.0124609164322
-6.6185070568e-05
5.39320833439e-05
-0.0114968188944
-7.91927486083e-05
-0.0114945677715
8.07210159992e-05
0.0115041461508
-0.0124990174859
0.000105920910676
0.012479934491
6.54001531637e-05
-0.0114979918801
0.0125106226923
9.3269313877e-05
5.36761265191e-05
-0.012519806204
-0.000106063864944
-0.0125247167672
0.0125123453333
0.000112921099181
-7.39377187089e-05
-0.0115014287428
0.0115092480782
-4.02153368843e-05
-6.58717948477e-05
-0.0115161910109
7.02394986319e-05
0.0124967538935
-0.0125323745551
9.98835067051e-05
-0.0115041766287
-0.000135383359049
-0.012453438461
9.84549716506e-05
0.0124299494002
0.000142781087274
0.0124334871991
0.000113896328466
-0.000108821879976
0.00010235568438
0.0115198679625
-8.80162453158e-05
0.0115106317126
9.51607173337e-05
0.0124060979784
0.000121309610468
0.0115259989467
0.000114232271427
-0.000154650120846
0.0124112780455
9.26989811975e-05
0.00016045638076
-0.0123809171183
0.000184496185472
0.0123603092164
-0.000178558920974
-0.000104535950283
0.00012104775812
-0.00010579257179
-9.31131502641e-05
-0.0115344858735
0.00015817508644
0.0115427739682
-0.000146036813959
0.000189981395644
0.0123997643881
0.000134363688577
-0.01247435981
0.000140548428629
8.91678979732e-05
0.0124557502757
-0.000119929667943
0.0124926644749
0.000126019324964
-8.28056245338e-05
0.0115178366047
-6.72268455762e-05
-0.000117864630878
0.0115545006028
0.000121925521659
0.0124780732555
0.000143040157819
0.0115344881531
0.0124369006191
0.000156693638899
7.66514034911e-05
-0.00018348680638
-0.0124631202477
0.0124610557785
0.000179955327313
-6.43647870616e-05
-0.0115419434549
0.0115586666647
-5.58171318128e-05
-0.000136804022081
0.000138112884485
0.0124311875575
0.000157633582325
-0.000242571664524
-0.0123914709404
5.60527090288e-05
0.0123975876795
0.000246149455656
-6.64774645577e-05
0.0123506293759
0.000207050714328
-8.27469534571e-05
-0.000209702190986
-8.26525001388e-05
0.000184018972786
0.0115125900476
-0.000163810179346
-7.18599709286e-05
0.0115419990858
0.000179762512877
0.0123617742651
-8.46195276495e-05
-0.000252702505059
0.000211516604917
-6.85257596206e-05
0.011536503699
0.000199352913996
-0.000269885191777
1.61664978021e-05
0.0124314722713
0.000274415206969
-5.55386076325e-05
-0.0124092435132
0.000298225513088
0.012481528576
-0.000307552981742
-7.4707427536e-05
-4.03447453603e-05
0.000204629034428
-0.000191765195856
-0.0115157748244
1.67399253528e-05
0.000234317519146
0.0114944217521
-0.00028201488304
-7.66619168632e-05
0.000216819697973
0.000300506293614
0.0124934398272
-4.83154238139e-05
-0.012423549003
0.00023019480692
1.22150969955e-05
0.0124361803776
-0.000201255877395
0.0124525532394
0.000200983270561
-3.44561263475e-05
0.0115539629757
1.19217727045e-05
-0.000189644782874
0.0115602892716
0.000176542894561
0.012463186281
0.000225215520984
0.0115478182504
0.000256108978292
-3.61566718145e-05
0.012457132128
-0.0124780726572
-0.000277191690696
0.000268464886014
0.012520108665
-0.011527393318
7.76585968977e-05
0.0114900102216
6.13816153616e-05
-0.00019745055436
0.000172656429682
0.000252005868982
0.0125111741028
-0.000134796427236
-0.0125231009203
3.11778911847e-05
0.0125127212108
0.000133329450018
0.0125093367317
0.000119820933011
-0.0125277106715
-5.13186973901e-05
0.000117273751207
0.0115736632827
-3.40150090419e-05
0.0115763895207
-0.0115608090388
9.95198611526e-05
0.0124960853173
-0.0125393048784
0.00012030841437
0.0115955851492
0.000115296616391
-0.000149437694148
0.0125047608761
1.64661266633e-05
0.000146877442877
-0.0124845393907
0.000167387068419
0.0124855704931
-3.52297559968e-05
0.000130576076062
-2.53011250289e-06
-0.0116004976242
0.000134143871913
0.0116078213059
0.000163662632814
0.0125065962126
0.000126198468489
0.012522011005
0.000142680090222
3.98537849728e-06
-0.0125287928106
-0.000157090513746
-0.0125355825987
0.0125361193251
0.000154114973844
7.01904413335e-06
-0.0116204213635
0.0116191056835
7.01518927269e-06
-0.000113506962545
-0.011626330561
9.86331788934e-05