/*--------------------------------*- C++ -*----------------------------------*\
| =========                 |                                                 |
| \\      /  F ield         | OpenFOAM: The Open Source CFD Toolbox           |
|  \\    /   O peration     | Version:  v1906                                 |
|   \\  /    A nd           | Web:      www.OpenFOAM.com                      |
|    \\/     M anipulation  |                                                 |
\*---------------------------------------------------------------------------*/
FoamFile
{
    version     2.0;
    format      ascii;
    class       volScalarField;
    location    "11.15";
    object      p_rgh;
}
// * * * * * * * * * * * * * * * * * * * * * * * * * * * * * * * * * * * * * //

dimensions      [1 -1 -2 0 0 0 0];


internalField   nonuniform List<scalar> 
28582
(
19547.9606254
19546.0145653
19547.9176194
19545.672422
19547.6093428
19544.3413734
19548.2125699
19543.604816
1232.58444002
1305.01229091
-0.11423438888
19545.0901887
17205.1783968
16956.3105323
19542.9786091
19542.0831837
16921.8294319
19508.884498
19507.5260817
19549.0467828
19544.8059023
19544.5563188
19549.4954541
19544.5833696
19544.367502
19550.7333993
19543.4684744
19553.3813224
19542.9422593
1325.8877353
-0.116288027664
-0.0523218534699
19550.9450434
19551.5896302
17349.6502159
17317.5381473
19535.2089628
19543.0195923
19542.2747792
19542.8979767
19511.5361584
16879.2281682
19510.058345
19511.26966
1252.37462658
1336.09600276
10.2068111038
10.59218368
1281.44256748
11.2059671498
19521.5475722
19512.1693737
17117.1672713
17181.3817605
19521.4369966
17082.601191
19512.2179359
19505.1305955
19502.3531316
17028.8618624
16916.9458426
19501.0559884
16992.9832969
19505.2435015
19502.9958711
19502.5617863
16924.4767337
16878.610198
19501.0704801
16858.8827927
19504.7994863
19509.9688171
16959.769826
16888.8642434
19505.8504659
16934.2543881
16867.9281102
19507.5061579
19505.3729167
16845.2428858
16802.584185
19504.9278755
16788.7231769
19503.650603
16824.8095088
1213.36400103
5.60226898703
1199.90635342
1202.67623575
5.11454633382
4.99544770085
1350.32118305
9.2714913187
9.68863437657
1358.67418271
8.7084808062
1341.90915499
8.65050813519
19535.8301196
19536.6072628
17332.2283019
17365.8072806
19533.8029177
19538.6296718
17351.2118663
19532.0793766
19525.5833545
17330.7824836
17331.9082836
19530.2356779
19527.0585231
17347.2590109
17343.5460884
17302.6256624
19529.0019742
19534.3638566
17319.3078918
19528.5983557
17343.1929718
19512.1021453
16954.0275006
16887.2336799
19513.0642512
16938.7995497
19512.3181196
16886.460943
19513.8350992
19511.1392376
16914.6252954
16868.2964582
19511.927748
19514.0007363
16878.7039199
19509.3336975
19507.325687
16864.5337876
16824.0914964
16847.2355501
19511.8643008
16896.8691758
16864.9306972
16883.845422
19512.6338461
19513.1740806
16882.8285473
19513.115118
16896.166345
19542.8915293
19542.8257625
1368.30703868
-0.0763708781046
19548.439246
17232.9616619
19543.0592702
19542.7901985
16841.7021757
16867.4012842
16751.5905511
19542.4539538
19542.300754
16718.0209933
16675.4231251
1218.83945799
1379.27418178
1402.84580095
8.08756118099
8.31803903715
8.24202335387
1423.51126061
1437.58416008
19514.2722689
19521.1826513
17259.6423546
17147.7080622
19521.5050585
17180.7570143
19512.727967
19514.0155682
19510.7958366
16810.3419098
16845.5118598
19511.2736021
19513.9700319
16818.76162
19511.4094336
19512.4215989
16852.0723557
16835.1801437
19512.5696396
16814.3983558
19510.8148817
19510.1301332
19506.7462537
16745.02751
16795.9371692
19509.6968732
16777.7772203
19508.6691594
19510.6376549
19505.4566183
16720.5794305
16691.3545937
19509.8425197
16701.5797976
19505.3526409
19511.8974416
19507.3611901
16687.3490089
16683.0497493
19513.2088287
16693.6763907
19506.0116928
19545.2934072
19545.2216885
19548.7549931
19550.2065885
913.541425826
1106.24140734
915.329061358
1068.95414493
1097.57829563
0.0435243543995
0.136661480764
0.0685670507355
-0.233808914743
-0.0433231095446
-0.16877874096
19550.9977797
19548.2621088
17528.256803
17312.9381782
19546.977135
17235.897117
19546.4089477
19546.0362511
17312.4384987
17412.8599389
19546.2434887
19545.103926
19545.5863812
17240.0151089
17148.4111775
17390.458854
17313.9798289
19548.4614636
19551.7150421
17132.9888552
17214.7294045
17292.6582368
17307.2955678
19546.1845749
19546.8479454
17422.6661336
17350.884885
17399.8698071
19551.7949843
19549.4175047
19552.3469544
17330.5272335
17323.7028571
17394.9012968
17394.0089056
17401.5787616
17402.2605104
866.438249057
891.425333611
908.978755587
9.34444103986
11.2584337702
10.7480948145
11.2269571606
13.6693853075
9.99626302455
10.4708564218
7.97456029735
903.289456933
895.469857004
985.344661022
910.343165634
976.888599818
10.4223869061
9.10466278949
9.40507745075
8.26223155654
1208.21079134
1082.63797207
1184.20346806
5.35257560494
4.84756140154
4.94946392247
4.53400804165
976.436916503
996.530388116
8.00063668063
7.14423601386
6.96491373684
1162.56619151
1077.98852658
1158.50385635
4.91956863663
4.05303311176
5.17218911903
4.33846884436
19530.3349383
19526.5830251
17668.7887684
17431.9970181
19522.7723201
17569.3488727
19533.4873139
19526.0223419
19516.453016
17368.2021037
17434.5439812
19518.7561481
19522.8422295
17497.5360109
19515.2483175
19512.9021136
17271.1704229
17138.3049675
19515.3385935
19512.7736124
17175.1572645
19520.9774535
19515.5434525
17429.8571503
17321.1158468
19521.9513076
19515.4008006
17430.013774
19522.770651
19519.6723052
17370.8412755
17496.7445611
19517.0267579
19524.1690741
17461.870543
19513.7365176
19511.8397765
17162.5061746
17273.8025629
19512.4359697
19512.684918
17208.1178354
19515.302871
19515.823658
17162.3244802
17194.3478672
19514.4166262
19517.5029736
17194.8240416
19516.1504449
19517.8697118
17334.1866669
17353.8986401
19515.3952937
19518.2444748
17290.0743072
19517.3283961
19519.9926349
17258.4678431
17327.8763329
19518.8118008
19519.0851442
17271.1207748
19523.2085316
19518.0121274
17160.366512
17178.2748661
19520.400684
19520.5566514
17196.9513652
19524.3500758
19527.2817933
17190.737941
17246.3270396
19524.102032
17218.5177965
19527.1868366
19523.0354798
19521.8299404
17229.527949
17291.2995697
19521.0653191
19523.3860057
17235.8545356
19524.3526409
19526.9115573
17263.9464572
17295.2584153
19524.951942
17247.9877374
19526.807589
19522.3873012
19520.819941
17385.4697086
17446.40132
19520.0987873
19522.793056
17415.1786257
19522.7988955
19521.2022496
17363.7594997
17384.2081049
19520.5154665
19523.2092064
17396.3575706
19524.4449811
19527.405791
17394.8481253
17406.9610427
19525.6119593
19525.9624974
17405.675553
19525.7301061
19522.7270244
17316.089308
17365.0295596
19524.1873814
19524.5250154
17353.1000159
19526.0455133
19527.3462363
17315.3704195
17357.4614265
19525.4301371
17346.6438966
19527.6738976
19528.5679946
19529.1765693
17383.2410705
17386.0760539
19527.1644737
19530.6085728
17370.7243042
19529.1423491
19531.4271341
17367.7581093
17383.2986081
19530.6979051
17361.7889081
19529.8396568
19533.5917971
19531.1374148
17394.5857659
17408.5842387
19532.6938044
19531.9955341
17407.1089807
19533.6199037
17393.4659582
19533.0428011
19546.9372224
19545.150563
19544.2830046
19545.0897922
19546.1263323
19556.4857891
19547.0514769
19545.1410379
19544.3484477
19544.5256444
19545.1764508
19555.9846931
19537.3739939
19541.6152606
19538.4383915
19542.7503611
19546.420784
19549.6915174
19555.4799931
19535.4984622
19539.2995381
19542.0118577
19543.3381234
19544.1182981
19544.5455588
19544.3069267
19543.5880608
19555.3244229
19544.4603695
19543.2344795
19543.1029182
19543.595709
19544.2056607
19544.5901503
19544.9968645
19557.6315315
19547.3817482
19545.4199928
19544.3039515
19544.2274443
19544.601211
19544.7725668
19545.0649155
19557.9544908
19544.3372292
19544.7829964
19545.6958816
19557.4082728
19535.0865249
19539.7969434
19541.6104107
19543.4057201
19546.7606217
19552.7841629
19599.6342681
19461.4560216
19538.899973
19541.9401854
19546.0249152
19545.9129667
19544.690727
19542.8699134
19538.9516109
19536.0340913
19543.8588268
19543.861001
19544.2603691
19544.1567301
19543.8078433
19543.1424292
19542.2526553
19552.8204248
19547.6707682
19545.7298462
19544.7161457
19544.6278147
19544.5980293
19543.8387624
19542.6906602
19555.1237233
19544.1665201
19544.0392047
19544.2276102
19556.3534167
19532.2487233
19539.6443236
19543.4851532
19542.8651372
19542.6165922
19543.0337856
19547.8361464
19472.66375
19536.1050845
19542.3858838
19542.0186079
19542.2348123
19541.1610325
19537.544946
19525.7148016
19513.3535731
19545.0421824
19544.0448756
19543.4188874
19543.0342018
19542.3064418
19539.8439532
19533.0561667
19547.3890652
19551.4498139
19548.6189976
19545.8398224
19544.1168758
19543.6278824
19542.832981
19540.8481643
19536.586728
19550.2616775
19547.1834543
19544.4649489
19543.4609183
19542.5938149
19541.479632
19539.5876413
19553.3057818
19542.1982079
19541.1466648
19553.8089368
19535.9848716
19542.6407959
19547.3096044
19546.0171837
19541.9465525
19543.0786024
19544.811324
19515.9627372
19541.6579379
19541.5505276
19544.2723709
19545.1362485
19543.4444728
19541.8951773
19541.5144263
19538.2252045
19524.0849412
19552.6053641
19549.1819785
19546.0524145
19544.901544
19544.4756829
19543.3439766
19543.0266671
19542.5311203
19539.4786192
19538.5447649
19553.6787756
19549.9907737
19546.3930735
19544.6196932
19544.4098497
19544.5068894
19542.9276231
19540.8274201
19543.1175339
19548.3510259
19544.7959428
19544.3012681
19543.4183697
19542.0848674
19541.6911855
19544.4196013
19542.1218595
19542.3042895
19545.3122694
1138.91442908
1197.73371908
1244.05369577
1338.08034726
1431.44144453
1455.73273149
1451.38754813
1499.86395541
1258.88130497
1179.08045408
1171.10430265
1221.6440646
1263.67579606
1299.27518129
1370.81791608
1425.19179178
1454.33919445
1524.51966642
1223.23244053
1206.21670338
1188.25860794
1218.22627902
1245.8504694
1281.63054618
1293.13921161
1381.20467825
1455.24250178
1514.33349607
1197.0830975
1197.60511559
1214.77204475
1222.26479094
1242.88532403
1263.85147624
1361.72916767
1445.170054
1484.20301829
1205.48880237
1220.36884616
1235.56876733
1316.74071915
1389.99901706
1450.47095404
1466.07268888
1421.29321387
1452.23612101
1471.84467041
0.0532514060176
-0.118618754989
-0.118679368567
-0.149133945498
0.164108832264
0.797141229163
-0.0889582310389
-0.116303673073
-0.247800490801
1.20290491361
0.627677142348
0.375762717904
-0.123159742834
-0.230447671814
-0.11664033453
1.39407066505
-0.0216611070219
-0.157760580777
-0.234221340406
0.731684269756
0.535853559058
-0.076986060528
-0.146761208221
-0.135164702644
-0.132803465823
-0.131704273872
1.15074861489
-0.135589166705
-0.293878678184
0.888876106562
-0.0575934677863
-0.143094443197
-0.105249866334
-0.102795247531
-0.0918595732589
0.274269404721
-0.135122013417
-0.282500231172
1.05038878836
-0.0737915959692
0.00285574333803
0.878745728056
-0.117471325294
-0.139125789287
-0.267466021777
1.07754988825
-0.103011234555
-0.257940565719
1.34570573805
19539.8036131
19537.7836117
19540.0773971
19536.4102841
19539.3958422
19537.2616158
19539.5312705
19542.5422608
19541.9748286
19543.141134
19541.3874026
19538.2503296
19541.0966028
19540.4214922
19540.5891309
19541.5109015
19541.6513707
19539.1330433
19540.7597235
19541.1707632
19541.8626486
19542.983787
19542.3390117
19543.2489266
19542.1243899
19542.3884996
19542.9944903
19544.0643399
19537.9911894
19536.0416426
19538.7723301
19533.155525
19537.0960027
19534.5275096
19538.306621
19540.5485063
19540.1380391
19541.4938322
19539.2634948
19540.1569703
19540.1031011
19540.3763035
19540.6356819
19540.9669131
19541.9808023
19537.4382016
19539.9894142
19539.6592586
19540.840209
19542.4129642
19542.9585056
19546.6916367
19541.9432831
19538.9755552
19542.0337756
19545.4606766
19536.8598482
19533.7561901
19538.1424465
19531.3183466
19535.8774118
19532.9980688
19537.0068707
19540.8660022
19540.8232501
19541.9948137
19540.6283531
19543.0421249
19541.414958
19544.663
19538.8063454
19540.5027232
19541.414764
19538.6589268
19540.4011148
19542.0757173
19542.9071964
19539.707063
19542.201556
19544.8762045
19542.6285281
19543.2021245
19543.5882448
19545.6835192
19533.6603957
19537.5488765
17174.6926716
17180.8383102
19539.5270516
19539.108906
19541.1776673
17182.2656937
17216.3296476
17171.2138649
17175.2466542
19545.55455
19543.4280662
19545.4630257
17212.1296115
17227.3443379
17172.7739371
17177.8578185
19547.3274578
19546.1102685
19545.4492351
17240.9364899
17164.1529986
17175.6477275
17033.2019297
19543.5156896
19544.0546226
19542.4755213
17081.3081858
16708.6041665
16949.8602805
16723.5065828
19541.8770148
19541.5443577
19541.4110172
16601.5470147
16521.8201812
16687.6995448
16676.7239942
19544.922983
19542.2085242
19543.3018268
16568.3302583
16733.3745289
16697.0573937
16744.6185833
19535.0328311
19543.2286172
19535.2782693
16765.2829957
16623.7627678
16743.8402288
16469.9854147
19498.3113856
19519.1010047
19522.9736789
16671.816607
15762.6498779
16513.6573721
16425.7344613
19551.7186724
19548.7395018
17219.9681081
17224.2113514
17301.0038512
17274.7502197
19540.8509183
19545.9918148
19544.1059494
17212.7772424
17179.6267299
17265.8193649
17234.9257456
19542.8711736
19543.5001491
19543.8705847
17169.0964259
17162.086405
17212.4804667
17151.3804276
19545.0646961
19544.6438694
19545.3204715
17165.4900138
17168.8855146
17143.5772431
17120.9844075
19544.4504806
19545.6100748
19544.8213176
17159.5818397
17003.8135713
17100.9688401
16962.0412162
19542.4532068
19543.661353
19542.7708763
16949.247737
16820.0908179
16940.0413004
16915.1882275
19541.7310691
19542.5546394
19542.4996802
16788.8717621
16737.1693722
16910.8078598
16894.5094723
19540.9703451
19541.8649992
19540.8265939
16738.3183666
16742.6898699
16874.874021
16781.165066
19532.6732249
19538.6629303
19535.3056306
16729.8943889
16446.5455361
16735.6577723
16470.5219972
19541.5650423
19531.5946261
19551.6772363
16490.5238391
16443.6794212
16522.0498236
16437.6172944
19551.1613734
19553.5258692
19552.8715445
17318.5675048
17293.5596412
17391.2499458
17373.5762091
19547.5040918
19551.6791468
19549.9848676
17288.0689045
17257.7909364
17370.8030254
17268.5781162
19545.0472067
19548.1526707
19546.4216667
17223.6691472
17158.8720167
17225.2361796
17148.3921146
19544.8682895
19545.4357416
19544.7971503
17149.4086908
17122.916601
17129.4835715
17128.2885231
19543.9402622
19544.3681203
19544.1747625
17096.5610109
16999.0129854
17109.7470868
17054.4428198
19543.0502533
19544.0193109
19544.0275453
16971.5969553
16923.4340045
17047.0345546
17046.4121335
19543.1148799
19544.145219
19544.1071642
16932.4532044
16935.7766942
17056.1936624
17039.8104738
19541.2153396
19543.2303065
19541.7304714
16895.3409932
16755.2416117
16952.779049
16725.2339459
19538.0471421
19540.2924535
19539.8075111
16708.0224702
16528.7839541
16694.0302431
16593.1492364
19554.6085758
19541.2514597
19555.8817198
16582.6565966
16440.1060804
16663.7049323
16451.7790108
17401.5852671
17385.6325736
19551.8997525
19553.599201
17380.4874585
17280.1891056
17342.520307
19547.9907056
19551.8563229
19549.703638
17242.9255657
17187.3929352
17323.4298442
17293.3929276
19545.2470956
19547.6562987
19545.8987577
17166.4952191
17125.6648244
17267.1821957
17116.0662394
19544.4073404
19544.8679821
19544.5576359
17110.6840928
17069.5400637
17088.6824618
17097.9953966
19544.5089016
19544.5938312
19544.5575913
17063.9225704
17071.9232059
17101.030911
17062.5055178
19543.9735186
19544.2825549
19543.5610059
17081.1011035
16990.4919015
17042.736845
16866.9033406
19541.6371316
19542.5977103
19541.6761741
16912.4479775
16726.2674584
16814.6506196
16722.2357656
19541.1397516
19541.3651296
19542.0190355
16708.0046519
16607.517122
16714.8358977
16599.75745
19556.445641
19543.9936278
19556.7431165
16679.741821
16446.4402602
16679.7140437
16486.7308812
19546.0136082
19545.6965901
17274.1422063
17099.5032019
16998.6018533
19544.4469309
19544.3872729
19543.9444721
17087.6425599
17128.2546401
16984.5317324
17022.1052055
19544.0351439
19543.8330068
19543.5850947
17135.8329024
17024.1872185
17029.1359342
16908.967903
19542.6764461
19543.054455
19542.430866
16968.4784144
16856.3850445
16852.8077454
16775.0033942
19541.6358091
19541.9643118
19541.7120062
16813.691265
16699.4493701
16745.7608172
16660.1902821
19542.4357276
19541.8627823
19542.6447361
16702.3334038
16610.0055833
16668.2112852
16585.7870492
19556.876647
19544.6162085
19556.8766036
16686.6037178
16517.8084893
16680.5880069
16575.2713344
19542.398825
16758.3657388
19541.9856756
16727.50495
16667.2318252
19543.2515268
16673.5752673
16585.1756727
19556.8357868
16678.462208
16596.3873871
4.9234516695
1.95969869927
5.75771779478
2.30892176241
1115.28714455
1140.76114095
0.562477568338
0.535167039789
0.734636850261
0.716906498074
1166.43246059
1157.62504691
1182.95356022
0.792716443436
1.09100474051
1.26943877298
1.29622512263
1218.1470418
1210.89344462
1230.50723704
1.36807388878
1.05669215964
1.42905171538
1.01723019865
1290.15805976
1255.27069815
1291.62510725
3.15122534393
14.7829296139
4.15739061279
17.0202460656
1392.2469997
1328.67226308
1370.85378455
24.3837303143
27.7191128278
25.1225528939
25.6939672253
1439.57894301
1406.89105486
1424.8363409
20.6955717194
17.4379454518
16.076859862
13.0849379853
1455.24020444
1443.21347419
1449.70684374
13.8211193835
9.88963739105
9.94432451506
7.11985598732
1480.40682604
1452.25267883
1493.60414799
7.89142278256
8.28733437157
7.01219709177
7.94696291644
1554.8942742
1502.26047201
1603.4277097
13.4082873639
41.6984807041
14.0953592036
22.9779010668
1232.21704761
1240.69234721
1234.37706339
11.4123257711
8.55982827373
12.5060568188
9.64752003889
1157.77785748
1199.23001017
1177.68641809
6.14423495007
5.39577226794
2.94279686356
2.4330084619
1196.39876051
1178.08845893
1198.58774674
2.79083672569
1.60359648554
1.79369007637
1.37288028087
1240.94333061
1223.90463641
1243.01272104
0.779019410119
0.825238219899
1.1912916404
1.56093686524
1291.87049947
1260.68835537
1277.66537897
2.81066925791
12.1269005693
4.40718895236
9.07912447584
1330.49679705
1286.40373402
1304.2767659
28.3316468458
30.6565355062
20.6400294653
24.4844625637
1400.97901907
1335.30504674
1366.55261878
15.4314830228
11.4232112004
13.6349542768
9.40969139401
1437.22655742
1398.1647557
1426.1339898
6.81749637969
4.94991998986
5.43922961612
4.9738609112
1506.69917734
1455.41188207
1507.58276207
5.05196455564
6.98315098483
5.36133295062
7.08918602412
1629.45322982
1526.04561113
1616.63259651
13.1296914345
19.160503199
12.9249751101
20.9417283001
1219.80388526
1208.50685928
1206.47544079
10.2207428136
5.72897761688
9.62613216916
7.22115165093
1188.76175321
1202.02130712
1194.0134131
0.605822275737
0.759763435126
0.667705604291
1.72644164625
1200.0945154
1196.40906339
1210.51110344
1.09865019066
1.24567821738
2.44668179421
2.78067288658
1234.14189782
1224.72520044
1228.32297025
1.88059396592
2.49353688471
2.8094260663
3.02265653109
1260.54008638
1233.75003196
1243.88934831
4.38417623713
6.06131631291
3.75910967161
4.74225147
1289.06992526
1256.69712222
1259.40746325
7.17339971882
11.0282620023
6.01946779989
9.18498757788
1333.45461362
1268.90425823
1305.68711785
24.1573780835
16.4023030115
22.2267798103
18.7725887408
1416.27363841
1365.0644908
1413.60005717
6.52897464148
5.72987327971
6.69380040106
5.77583234315
1500.6665398
1450.34518606
1490.59682911
5.94924708376
7.11947787549
5.79779892494
6.50115810041
1581.52240272
1500.94877788
1547.30848913
12.5781332046
23.7413937231
11.3521384102
27.3296324276
1196.77330772
1197.69528167
1.36338031804
3.12732494696
4.04327813385
1205.97432376
1196.6979105
1202.0661106
3.57944707267
3.74420619841
4.4823185494
4.55967514132
1217.46311655
1205.30219672
1212.06985894
4.0333962844
3.73893433495
4.90505278889
5.52693181601
1232.38980896
1218.98137853
1230.60734082
4.2265670519
5.30173661085
7.76318921049
9.1865923123
1249.51125816
1243.04644512
1258.74812648
6.53533170347
9.51001388581
8.92024607151
10.013903417
1308.7422512
1275.87228163
1319.70739236
14.6696172902
16.1714975276
13.9950456794
12.1711767653
1415.4617974
1373.18993885
1418.58160921
6.81939232636
5.94390112935
6.57063085212
6.1107438025
1483.29431108
1447.98620008
1481.61855186
5.64438367115
6.10406667402
5.71713114837
6.2032561123
1527.35706439
1473.04706063
1519.45201836
10.5559753394
29.6424901575
10.2907086548
31.81515423
1215.71550994
1232.84103717
6.28476762866
8.40543168392
8.11739884122
11.1926886731
1229.27832584
1246.08883249
1256.86365037
10.8009634532
14.4846268581
13.1937086624
17.4126475433
1271.87093293
1263.96492713
1305.73823816
22.5834688556
12.5857239295
24.2871276478
11.4835330195
1354.16771738
1348.5932581
1383.11683786
6.67475793831
6.67189429027
6.96571317812
7.5828311481
1427.53267276
1411.7573525
1440.35022961
7.59795687963
8.29253274021
8.46486545855
9.55161784454
1477.5366183
1452.98867338
1483.63834448
7.60391302522
7.18671284734
8.47673667102
8.61585306444
1518.67204596
1467.78537315
1522.540789
10.2909236447
31.6756256236
10.7109990368
31.127733681
1396.70908229
8.44169661759
1441.41440291
8.76949161629
9.19092151963
8.36494937466
8.22311687129
1486.60040338
8.55753936835
9.16300906953
7.55210577179
8.65969687259
1524.54140005
11.7124008266
33.841415132
12.1996446134
36.6267098269
19524.9374683
19525.8680549
17184.2133153
17176.1135898
19525.6896168
17188.4086815
19525.3289169
19524.7678248
19525.3868871
17167.2861357
17191.8599558
19525.7063789
19524.4867277
17173.0023573
19528.2352616
19527.246493
17199.8387081
17178.945256
19526.9627143
17189.142381
19528.8919142
19529.0236871
19529.9013598
17208.8663254
17204.4189611
19528.8569317
17195.9863481
19530.0854916
19527.8455082
19526.1028539
17170.1844986
17173.2857812
19526.671431
19527.0318323
17178.6900403
19528.6305583
19528.1894212
17191.3581913
17173.2043682
19528.4078432
19527.861627
17183.5906763
19527.4898013
19528.7256524
17209.0524276
17201.1268682
19527.6988431
17199.2855551
19528.4339714
19528.2301833
19530.2444158
17215.1934343
17214.5886312
19529.1831528
17208.1769079
19529.1523318
19527.1450441
19527.9849833
17190.3669335
17173.5041448
19527.2864735
19527.9185727
17190.3896261
19527.751463
19528.6913457
17198.0820409
17180.604486
19528.6070902
19528.3410276
17198.2235788
19530.2597076
19531.1414749
17239.1829847
17218.6825491
19530.025677
17212.992683
19531.5447275
19529.6229585
19527.3688479
17212.0791945
17124.4454764
19526.1661428
17182.812264
19530.8329911
19529.1190933
19528.666795
17198.9853431
17158.5654062
19529.1388987
19527.9880341
17185.0524945
19527.9844436
19521.5630971
17074.5521184
17110.9481889
19523.8364738
19526.1004455
17143.7025379
19512.4560588
19521.5940816
16971.1217492
17037.1620787
19520.1553114
16927.1526246
19513.7959179
19504.394189
19497.5887593
16841.3997437
16685.6573188
19496.7838591
16804.3956743
19505.6287791
19510.3475268
19515.4919811
16993.1132036
16863.8611074
19517.8437992
19508.0922127
16895.9862816
19502.2794965
19495.2899025
16707.2789587
16789.2662352
19495.5756024
19500.2169218
16799.9999265
19493.0392261
19491.7515306
16515.4241623
16597.2187904
19492.289612
16537.3000785
19491.6805308
19496.3092401
19499.6616344
16499.2733099
16558.0496267
19501.3176603
16537.1343294
19494.506685
19496.1392738
19495.0422404
16645.0862932
16658.0730683
19494.5451007
19497.0192583
16602.0162036
19499.8295987
19505.6359902
16633.4364413
16661.7839455
19504.5841386
19500.8314519
16613.2056633
19510.6614273
19504.5046132
16623.3787425
16599.4443895
19506.3297367
16648.1714238
19509.3283649
19513.3468586
19514.2638585
16677.8045
16737.4401859
19514.1491935
16693.7528569
19512.7331536
19511.5500657
19509.4625577
16656.1887636
16717.5357492
19508.4656389
19511.7540292
16680.5178751
19513.1859734
19512.4132755
16726.0478119
16733.4958571
19512.9356512
19512.4753381
16711.0637574
19508.8742273
19514.1518428
16763.2864137
16747.8375368
19512.7853807
16735.3665585
19511.7489915
19500.3756906
19496.0682581
16708.9451791
16540.2380701
19491.3254416
16663.003753
19504.4189478
19505.2380446
19510.4011131
16731.9174131
16729.2243704
19510.2000007
19505.882584
16720.1412022
19495.3698015
19488.3300221
16482.7590856
16631.3088859
19487.9137942
19496.6572778
16630.7949164
19458.8530763
19482.649037
16597.21316
16578.0856129
19478.458579
16523.3261863
19459.2396685
19401.0381384
19379.9694737
16287.9220327
16415.8797573
16164.8173898
19418.0055174
19381.7097407
19463.3021163
19479.6735162
16537.2774182
16476.3769916
19479.0564623
19465.4165275
16484.2150582
19417.6968657
19460.3401468
16407.3643873
15972.3045936
19427.2336532
15930.0175258
19445.8932745
19527.3114953
19528.2871947
17247.5415003
17254.497026
19527.0989193
17273.6960347
19528.2412833
19525.5276025
19523.6917717
17242.3634394
17245.3552231
19525.1464591
19524.5253251
17264.2379732
19527.2440647
19528.0622127
17264.3968542
17302.1972393
19528.027738
17275.829192
19527.7685863
19525.8518833
19526.2607539
17252.5831532
17290.596582
19524.5949025
19527.023643
17268.706863
19523.1161871
19522.4997466
17199.9936252
17238.1441599
19521.8362267
19523.8082149
17227.5910843
19523.0475756
19523.0464857
17190.3684584
17196.5463277
19522.4309286
19523.0110844
17215.2255585
19523.0921565
19525.9334481
17244.9318028
17255.3860543
19523.7893402
19525.6904824
17235.024561
19523.1204369
19525.6826003
17206.4658395
17248.8186448
19523.1686086
19526.0204914
17224.4201861
19523.3406621
19523.3272873
17159.0695098
17176.0251065
19523.9541676
19523.1171666
17158.3209621
19523.8193079
19524.9220086
17158.4073646
17140.1996622
19524.5631174
19524.2993549
17142.6679517
19522.8519564
19524.8880936
17188.5033194
17185.2018472
19522.9389249
19524.3300529
17171.2472364
19522.979689
19523.5375188
17141.0027653
17164.7640337
19523.0597313
19523.9378015
17154.6726544
19524.3162851
19524.8895674
17171.6266937
17140.9556602
19524.7796135
19524.4747841
17143.4923175
19523.6540371
19523.7176268
17175.3918518
17146.5276629
19524.514813
19522.3665305
17149.294709
19521.8778584
19522.7868737
17139.8099347
17135.9318501
19522.7090224
19521.6729315
17141.6569251
19520.6337273
19517.821858
17136.9761672
17127.2770184
19518.5842137
19520.1662513
17141.4473845
19517.0209509
19522.2682571
17135.677079
17136.9342257
19520.0140068
19520.0746312
17116.1048107
19513.0093258
19511.3963021
17082.9537724
16977.9138877
19516.5842735
19507.5067645
17057.6624821
19512.6592062
19515.1341303
17122.9562774
17062.5493802
19515.7184303
19511.8633561
17091.8551715
19509.0491391
19505.7322471
16977.2394605
17015.6827651
19505.7860784
19508.5341521
17038.2157738
19496.2149758
19505.5951108
16890.5229912
16932.2270242
19499.7957031
19501.8289879
16895.9276288
19490.949173
19491.9546743
16852.6424447
16842.8875346
19493.9306008
19490.4484723
16864.5110498
19499.0011014
19502.1351821
16954.013077
16931.0380248
19502.3725142
19500.0677776
16931.7530261
19498.007441
19500.7718612
16887.9867072
16922.1340572
19498.2551284
19500.0320869
16906.3604121
19493.2066346
19492.1204709
16760.1454014
16823.5297891
19493.9118173
19491.1395884
16806.0623845
19496.6696342
19502.1807174
16738.2642297
16787.3729313
19497.5286518
19500.6638091
16790.356604
19501.7456302
19502.5193372
16877.6645097
16908.209742
19499.336103
19505.2053365
16864.5330338
19504.8960282
19510.2617003
16834.1564398
16904.2738402
19507.7413389
19508.338827
16846.3099751
19503.2180669
19504.2088784
16739.9236828
16788.2113119
19504.6032165
19502.9802737
16784.9797199
19502.5784421
19502.4791161
16741.7989828
16767.9392626
19503.9474672
19500.8714552
16777.7196244
19508.4795453
19510.3100166
16824.3680525
16849.4883035
19508.6453997
19509.673855
16810.6049732
19507.4289328
19505.0845622
16759.8739805
16817.9804918
19505.1203448
19507.9294804
16786.9093106
19491.7681574
19499.5753176
16709.3758974
16749.463862
19494.8277581
19497.3115826
16721.037102
19482.4164014
19477.6273316
16608.7422256
16450.7742981
19485.8699963
19474.5507382
16617.1377176
19496.5228223
19501.3109901
16724.4821796
16678.6261674
19501.4578267
19496.7032808
16690.5938191
19488.9581972
19484.5985755
16475.75241
16592.0815854
19482.5359219
19490.1157509
16608.1072321
19456.0538023
19469.6098308
16459.5965048
16488.780468
19456.4785419
19467.6772761
16462.6857623
19427.5147416
19462.6923956
15955.4451369
16432.3163349
19424.3879529
15982.7071187
19466.6329172
19464.7241383
19479.0097744
16516.3684101
16500.1959641
19476.255473
19467.8324146
16491.0247421
19438.6106093
19478.4226442
16434.479658
16025.0904678
19441.5695266
16014.0763648
19475.8351635
19529.2581047
19528.5608139
17320.0158386
17353.6784092
19528.7188763
17350.5769203
19528.9572674
19529.0737027
19527.7825323
17309.87213
17320.0797993
19528.0402595
19529.3349568
17337.2583997
19530.9640189
19532.5867384
17365.7592083
17389.9792568
19532.8056567
17363.154975
19530.7246979
19530.8100526
19533.6377163
17343.390304
17381.144368
19531.3284558
19532.8920088
17355.6396774
19530.5321078
19528.1771425
17283.3033214
17317.0780597
19528.4775283
19530.0509309
17311.5794477
19530.3232913
19527.4147535
17278.2911242
17271.8965969
19528.5457976
19528.9791429
17300.6921281
19533.194239
19534.8305074
17336.2180606
17354.6240999
19532.6418081
19535.3602052
17328.990992
19532.5794757
19531.2373794
17272.8440517
17319.3866868
19530.3843069
19533.7428844
17309.1867843
19526.0468368
19526.2902726
17184.960473
17230.0030425
19525.1147628
19527.5521602
17184.2185212
19524.6555313
19523.1155247
17169.5467124
17142.4580237
19523.9579531
19523.401433
17160.6232972
19525.421889
19528.5872769
17229.6611712
17184.9255794
19527.8571211
19525.9144116
17183.9031323
19523.1745877
19521.8177601
17137.2728999
17167.40415
19521.5259174
19523.496392
17156.3752665
19521.1682234
19522.1381627
17140.2256479
17135.3440169
19520.8501164
19522.2975145
17130.8119175
19520.0636264
19518.1469393
17131.2102665
17106.0291468
19519.4741276
19518.4733127
17121.7274263
19520.0475128
19520.5135377
17128.6691091
17129.1015829
19520.5208436
19520.0706796
17121.9855666
19519.862365
19519.2025422
17115.1611414
17129.5129962
19519.1805883
19519.787401
17119.1341969
19513.9295049