/*--------------------------------*- C++ -*----------------------------------*\
| =========                 |                                                 |
| \\      /  F ield         | OpenFOAM: The Open Source CFD Toolbox           |
|  \\    /   O peration     | Version:  v1906                                 |
|   \\  /    A nd           | Web:      www.OpenFOAM.com                      |
|    \\/     M anipulation  |                                                 |
\*---------------------------------------------------------------------------*/
FoamFile
{
    version     2.0;
    format      ascii;
    class       volVectorField;
    location    "11.15";
    object      U;
}
// * * * * * * * * * * * * * * * * * * * * * * * * * * * * * * * * * * * * * //

dimensions      [0 1 -1 0 0 0 0];


internalField   nonuniform List<vector> 
28582
(
(0.815206295833 0.00375992833442 -0.000752075887029)
(0.816638267404 0.00307215476168 -0.000771393599773)
(0.815755102436 0.0041067996488 -0.000976456752534)
(0.817167114991 0.00305473940834 -0.000624823481348)
(0.816187168644 0.00403205985561 -0.00285193239582)
(0.818128170296 0.00316157775196 -0.00195276112547)
(0.818463806563 0.0050201401264 -0.00521880382809)
(0.822227607433 0.00416045932861 -0.00200861180185)
(-0.0816703847731 -0.00475306432916 -0.010766127697)
(-0.320015839919 -0.0178386439592 0.00243699873848)
(-0.119460721614 0.137818109664 -0.379699825713)
(0.821413346731 0.0046377002051 -0.00389598968247)
(0.756225371369 -0.00823624726729 -0.00764846921337)
(0.752001582718 -0.00933554499559 -0.00599114264779)
(0.821995904238 0.00408748965448 -0.00161116937788)
(0.821555381969 0.00449366688209 -0.000482805122416)
(0.75099398933 -0.00877841037258 -0.00427602342359)
(0.821501494432 0.0054383040086 -0.000836094329978)
(0.821523913541 0.00522035108571 0.00112613858454)
(0.814235283872 0.00649192668741 -0.000913096946893)
(0.818095775025 0.00130111147928 -0.000495018040149)
(0.817677832705 0.000660946636732 -0.000583726415286)
(0.814190729191 0.00620208099118 -0.00101500175879)
(0.818594053517 0.00177806526775 6.35639757126e-05)
(0.818034599839 0.00077834745262 0.000291962242006)
(0.813353618445 0.00588998441304 -0.00308577592511)
(0.819243442379 0.00172302982191 -0.00142775034202)
(0.815637206241 0.00597736651237 -0.00469625946189)
(0.821717748032 0.0040154764261 -0.00182839613071)
(-0.336646291998 -0.0313366327588 -0.00453634167772)
(0.184100605895 0.284349202161 -0.239301843061)
(-0.101485164031 -0.184973649585 -0.282047703022)
(0.817925586235 0.00450864289723 -0.00665483733229)
(0.817023657715 0.00472994712694 -0.00673026547525)
(0.762892571478 0.00155291642482 -0.00429486675281)
(0.759820836573 0.000626865336561 -0.00887710762013)
(0.81485413389 0.00507173435524 -0.00689706958607)
(0.821467678796 0.00341992111172 -0.00158700028602)
(0.821028747276 0.00430478407895 -0.000612625190103)
(0.820179182527 0.00354869756559 -0.000872363563893)
(0.820758822082 0.00547033678252 -0.00116162521599)
(0.744256682837 -0.00445114569798 -0.00162193567113)
(0.820511208525 0.005393535606 0.000818537180591)
(0.818088839275 0.00432623263891 0.00104680497677)
(-0.147837549484 -0.0194722648172 -0.00470800641494)
(-0.229828463033 0.0082683740306 0.00742545064422)
(-0.224541443974 0.0646596911103 -0.0362934659532)
(-0.202623863046 0.0717749764415 0.0172366727568)
(-0.258726241048 -0.0208508526736 0.00473181277427)
(-0.289923823805 0.0423026372881 0.0162256706924)
(0.817630392397 0.0051342279637 -0.00875285488382)
(0.820209271186 0.00543041516993 -0.0102622300597)
(0.754602166303 -0.00889381949114 -0.00853867881726)
(0.755960918801 -0.00816041744762 -0.00803395311686)
(0.817731516214 0.00539125354457 -0.00884455229495)
(0.754036587745 -0.00900189206578 -0.0085414945441)
(0.820343400235 0.00515549137638 -0.0103629794467)
(0.822172406389 0.00504316478133 -0.00903893539808)
(0.82390393849 0.00491446158654 -0.0075287908379)
(0.753622492569 -0.00909917985866 -0.0078290040212)
(0.752063403378 -0.00984616684944 -0.0059787148523)
(0.823753082531 0.00506271171179 -0.00695297113886)
(0.753408165235 -0.00946949487646 -0.00771605595227)
(0.822361755387 0.00482983285175 -0.00955294673399)
(0.823451734027 0.00501028598425 -0.00244600074759)
(0.824030040411 0.00506069539121 -0.0061033482297)
(0.750115763583 -0.00841306837852 -0.00211062783436)
(0.751476345407 -0.00954885959856 -0.00458231684032)
(0.823837706166 0.00508614588498 -0.00556193885427)
(0.750389016267 -0.00911343506013 -0.00204010396305)
(0.823456405934 0.00519470030893 -0.00325741979887)
(0.8215799554 0.00559914061737 -0.00236543157769)
(0.747917114672 -0.00690744647151 -0.000717369988266)
(0.748333068518 -0.00712976143391 0.000188450790556)
(0.822636063087 0.00521771615713 -0.00190136237843)
(0.748354364614 -0.0077171258099 -0.000487152542235)
(0.748723093321 -0.00837499909194 -0.00012801184983)
(0.822634584358 0.00551077318826 -0.00251770082668)
(0.821379601694 0.00465229602492 0.0027871713126)
(0.750644584725 -0.00674149434517 0.00171250693532)
(0.751720734584 -0.00773408087109 0.00286759810991)
(0.822842392359 0.00483083939401 -0.000531242622652)
(0.751939467884 -0.00907434158566 0.0013722933892)
(0.822937751079 0.00443093019217 0.000545915415926)
(0.750923280985 -0.00844360772706 0.00091586457955)
(-0.0098817817969 0.00434295690905 -0.00354820397344)
(-0.177809768525 0.209752671496 0.12472749953)
(-0.024641997412 0.0602103423429 -0.000939933457455)
(-0.0354313641867 0.0294204330323 0.00062178964664)
(-0.134100050774 0.109128315253 0.131505981321)
(-0.193858905394 0.0661607413773 0.134437073663)
(-0.223451261523 -0.0430609057218 0.00295088217509)
(-0.166512608506 -0.0535878241828 -0.0498838591952)
(-0.14518792648 -0.0753924147495 0.0226970836468)
(-0.21345685237 -0.113293755737 -0.00204637574669)
(-0.11120752629 -0.0610196282498 -0.0164741677744)
(-0.327671437299 -0.0763440804688 -0.00633230859027)
(-0.114750362018 -0.101407301448 0.0129873208412)
(0.814315269285 0.00526122868407 -0.00659303228903)
(0.81472749902 0.00588295295027 -0.00532421508532)
(0.762585909452 0.00129221181727 -0.00534964349759)
(0.762655256889 0.000215384085978 -0.00408122818918)
(0.815228905999 0.00488927865553 -0.00679065158972)
(0.813955672581 0.00580752158008 -0.00495349506169)
(0.762475047507 -0.000712938794449 -0.00531848241642)
(0.815480579557 0.00433376359806 -0.00761633652362)
(0.817238775406 0.0026011871407 -0.0107747895691)
(0.761168581958 0.000791873557319 -0.00663088825099)
(0.759672722899 -0.00220715515493 -0.00902760851001)
(0.816256742362 0.00364434269182 -0.00769510955834)
(0.816516997168 0.00363674571498 -0.0109318061352)
(0.7609229487 -0.00158298660383 -0.00673424234337)
(0.759361309929 -0.00500137209489 -0.00559823760983)
(0.758034679831 -0.00634393828078 -0.00829211652607)
(0.815620573005 0.00500254055526 -0.0100311408763)
(0.815055688155 0.00496514737567 -0.00685430695372)
(0.759023635838 -0.00532744990169 -0.00809951401343)
(0.815875071588 0.00458065455609 -0.0100027132979)
(0.760232846802 -0.00402126164585 -0.00542753237684)
(0.820938665501 0.00580280450236 -0.00250387491576)
(0.746438199432 -0.00653780974558 -0.000757051989529)
(0.746801310147 -0.00630017396332 0.00058717047048)
(0.820320485376 0.00521846390768 -0.00156234401446)
(0.746079558701 -0.00556014859523 -0.00118202333268)
(0.820555860976 0.00601345194535 -0.00314388762367)
(0.746863416064 -0.00480748770514 0.00022017962166)
(0.819958674348 0.00464415243885 -0.00169776999412)
(0.820851477566 0.00514768948338 -0.00356017321729)
(0.745664026051 -0.00514051274046 -0.00151962674434)
(0.745935028177 -0.00323528814823 0.000211734901025)
(0.82056673486 0.00572574323819 -0.00332141122547)
(0.81996012326 0.00375801704592 -0.00201111340257)
(0.746399773914 -0.0041497273663 2.86565794722e-05)
(0.819073489502 0.00453196700916 0.002128647566)
(0.820563506583 0.0047707054192 0.0024553732951)
(0.749694201668 -0.00538756706938 0.00179571841275)
(0.750809271587 -0.00646652124051 0.00363907658641)
(0.751376199 -0.00518514058589 0.00305222555718)
(0.819635091344 0.00501058505004 -0.000330554450073)
(0.750156406885 -0.00397345380465 0.000216541090919)
(0.750344827441 -0.00355474947255 0.0025524325085)
(0.750870203518 -0.00229498029058 0.000767003773184)
(0.817765996491 0.00355747290915 -0.000927482695238)
(0.819011121454 0.0044711796171 -0.00119229800494)
(0.748933753625 -0.00198599330708 -0.00143125493733)
(0.818721034577 0.00362567637919 -0.00233844908537)
(0.749100432512 -0.0029077092391 -0.000471839962009)
(0.819462103402 0.000563688565214 -0.00115894996075)
(0.821887539704 0.00230652149377 -0.00155257280953)
(-0.287871957227 -0.099894767989 -0.00761746409798)
(0.0269393966931 -0.0383786559346 -0.345071009933)
(0.819178152003 0.00448956880112 -0.00612794747258)
(0.756101520185 -0.00696947618529 -0.00910436995812)
(0.820146503418 0.00246104758307 -0.0018288678891)
(0.820203798445 0.00085119848982 -0.00165349629939)
(0.743513149773 -0.00360980405755 -0.0014964291579)
(0.750044270902 -0.00151479562007 -0.000625958293655)
(0.749384730507 0.00108633556536 -0.0018030412785)
(0.820481844879 -0.000436315299211 -0.00159291156695)
(0.820686322023 -0.00180340368131 -0.000484549886413)
(0.749672715176 0.00162292886993 -0.00134726494763)
(0.749720794083 0.00174516290449 0.000633241704796)
(-0.0691670747524 -0.0203467709839 -0.0101964578274)
(-0.209010484146 -0.135731285346 -0.00542909491723)
(-0.193672747407 -0.132579633606 -0.00349526927748)
(-0.0685531309111 -0.0564616525272 0.00726873264189)
(-0.0524019879798 -0.0223139850065 0.000646857274522)
(-0.046201964919 -0.0120293274863 0.00331031965535)
(-0.179739899331 -0.103399093587 -0.00115008608322)
(-0.170439201727 -0.0346058741156 0.00083267007509)
(0.820679760809 0.00400383022511 -0.0115741105731)
(0.817918827923 0.00469457984048 -0.0103104779761)
(0.756568163161 -0.00563141170215 -0.0088486287073)
(0.75423592925 -0.00759148756644 -0.00975963934452)
(0.818083093741 0.00411867271062 -0.0103351738993)
(0.754630933072 -0.006237586885 -0.00940682291159)
(0.820390017138 0.00473399044426 -0.0115180183086)
(0.820452477874 0.00145267507114 -0.00205871590871)
(0.821111995168 0.00414906233932 -0.00336792549334)
(0.743314409173 -0.00289396645785 -0.00062725055467)
(0.745169617656 -0.00214341801181 6.69544733829e-05)
(0.821367734443 0.00322344270812 -0.00279749859903)
(0.820102103601 0.00255587060292 -0.00191267439772)
(0.744885049727 -0.0010930648657 0.000203820658607)
(0.819162497216 0.00123657853252 -0.00348054620126)
(0.817650426627 0.0024767470071 -0.00178391378695)
(0.748395096938 -0.00118190302713 -0.00188981930971)
(0.749985675115 -0.00057737806872 -0.00163980073754)
(0.81884448302 0.00251061469074 -0.00261024244113)
(0.747799798687 -0.000274483867078 -0.00216330659249)
(0.818084129239 0.00121118204277 -0.00341935604251)
(0.819569712258 0.000460835147631 -0.00304932706317)
(0.819112564939 -0.000741502843827 -0.00335445938423)
(0.74769586946 0.00149401744088 -0.00159217263427)
(0.74973234917 0.000389779609321 -0.00213713890427)
(0.819860962272 -0.000112300579175 -0.0029043908342)
(0.747649714499 0.000731774968634 -0.00208572601488)
(0.818604276311 0.000278148097392 -0.00325950755731)
(0.819790140292 -0.00108199848324 -0.00158096513675)
(0.819095778637 -0.00133217289349 -0.00265119813249)
(0.748204065521 0.00224134515649 -0.00129007778467)
(0.749541341474 0.00177602747994 -0.000762540732401)
(0.819875588822 -0.000745126617315 -0.00216537426088)
(0.74874224668 0.00223023122066 -0.000502353258479)
(0.819243362519 -0.00176652274112 -0.00202142845631)
(0.819348131236 -0.001331073385 -0.000610485982224)
(0.818967753873 -0.00188204086976 -0.000303213287983)
(0.749341862286 0.00181250170815 0.000613506371485)
(0.749933188004 0.00203396866044 -0.000238328298652)
(0.819060578858 -0.00127242711001 -0.000153944307402)
(0.749240593665 0.00236519973812 -4.37926889021e-06)
(0.818910657718 -0.00198911240568 -0.00109641745767)
(0.806378167767 0.0128940766878 -0.000517362387731)
(0.808206077606 0.0144624336326 -0.00097574165352)
(0.80989288148 0.0176901719656 0.00360744499589)
(0.81055794712 0.0127349161484 0.00225447992228)
(-0.465369657588 -0.0149947292226 0.0125752304521)
(-0.344940824847 0.0264830206953 0.0395432833242)
(-0.584061687613 0.0711236278775 0.0116866348046)
(-0.328607363835 0.0756739002031 0.0289254934966)
(-0.257918501073 0.00500378887695 0.0198045531765)
(0.279413324633 -0.022490464312 -0.274955409957)
(0.419073595524 -0.277562579009 0.079808244768)
(0.127123345457 -0.118573251332 -0.300290022197)
(0.388327535753 -0.159012652298 -0.403827640002)
(0.150907541606 -0.0756181057908 -0.371581893722)
(0.414855322777 -0.0808319325167 -0.350940051939)
(0.801664092513 0.00333639179485 -0.00816296642731)
(0.802948093431 0.00799309762754 -0.00712499755646)
(0.779594466544 8.82523855646e-05 -0.0143984006513)
(0.780066588058 0.00454742080295 -0.0121392550096)
(0.802220041449 0.0101734209286 5.65441870616e-05)
(0.779718305538 0.00577597224957 -0.00964085918207)
(0.803779436438 0.0113842593109 -0.00515586040158)
(0.806359986276 0.0130531990139 -0.00374322991355)
(0.781586993027 0.00451635256558 -0.0113228198283)
(0.784723918045 0.00114114466081 -0.00656857405147)
(0.803297906839 0.0173659190421 0.00528176275292)
(0.807332625583 0.0144937937936 -0.000926676113001)
(0.807849509634 0.0169524704294 0.00346123144908)
(0.781091092758 0.00577150880219 -0.00909350136658)
(0.769635236735 0.00746783441685 0.00404811411857)
(0.783783598759 0.00154517004686 -0.00549014609779)
(0.772566197374 0.00270811776801 0.00207433403427)
(0.808860031791 0.0198576897179 0.00706190431875)
(0.809989857949 0.0235982852935 0.0105112120234)
(0.765570902298 0.00811957518728 0.0065533298221)
(0.752944782681 0.00970870944373 0.0139794101326)
(0.768577780962 0.00267788326475 0.00390697658466)
(0.755313560739 0.00526000040661 0.00805035509246)
(0.809720352079 0.0155985318227 0.000946678158402)
(0.810866275905 0.0139437546188 0.000965908754007)
(0.783658384608 8.61888506145e-05 -0.00502525096435)
(0.773088549808 0.00105224016497 0.000523889923411)
(0.773225194994 -0.000979383311721 0.00319165474853)
(0.810989516045 0.0181280696133 0.00549643293494)
(0.810246661782 0.0149844352982 0.00261156496548)
(0.810772390139 0.0152378509254 0.00357683632545)
(0.768956704842 0.000903961491741 0.00226362626513)
(0.755988588242 0.00346061454003 0.00646490720718)
(0.770233370128 -0.00156539884718 0.00351515075258)
(0.759500531133 -0.000278729114982 0.00492866677622)
(0.77040053616 -0.00127908015518 0.00392143740382)
(0.760620652719 -0.000567173987004 0.00450228322534)
(-0.317398516374 -0.0418257833312 -0.028139262443)
(-0.323260903715 -0.0799566653416 -0.0218328822093)
(-0.397469405679 -0.0689409581872 -0.000651918110633)
(-0.19214795263 -0.0903444346592 0.0842983397858)
(-0.0387838208843 -0.0509961315399 -0.0910384016575)
(-0.199556650677 -0.1103950923 0.047367036849)
(-0.0603060236855 -0.0539986168592 -0.148569188124)
(-0.0611868904225 -0.11438725412 -0.369891805651)
(-0.0585400763243 -0.181886991649 -0.428603080792)
(-0.09386274351 -0.0813191259583 -0.409876395629)
(-0.027332780432 -0.138328576039 -0.460341759667)
(-0.359176935426 -0.0775444642874 -0.0103702688028)
(-0.4514635098 -0.0357371637203 -0.00155295310662)
(-0.491767903588 0.0173173167251 0.0287897997962)
(-0.531607855326 0.0585055505319 0.0160400068564)
(-0.508856485887 0.0827613255144 0.0264866512109)
(-0.185489080276 -0.129712830218 -0.0207606533795)
(-0.0778563147439 -0.0709936990969 -0.204572053684)
(-0.17094420307 -0.139903035216 -0.0406522623922)
(-0.0584509690383 -0.0863885898394 -0.209364159606)
(-0.111848274693 0.000590360719075 0.0378886671104)
(-0.339467150059 0.0733741022692 0.035271789145)
(-0.125501086845 0.0427950098243 0.0333118441998)
(0.00319819620727 -0.0914744122609 -0.384794669313)
(0.15844971718 -0.117386500854 -0.37748261516)
(0.0401801557384 -0.0624917470236 -0.336625928585)
(0.187977068867 0.00385700181299 -0.319854278689)
(-0.510945102594 0.080946209327 0.0224839248409)
(-0.44239791419 0.0340201384331 0.0192269210569)
(-0.115979242849 -0.120873325722 -0.0350523053725)
(-0.0226538307661 -0.0839088699299 -0.161086736206)
(0.00978443155727 -0.0774441685302 -0.171470578558)
(-0.119343298888 0.0656263794898 0.0273538197183)
(-0.29092239109 0.0238570995297 0.0226124097476)
(-0.12260281614 0.0335316898789 0.0205714628667)
(0.0842802431151 -0.0636807945167 -0.255073393265)
(0.232993257164 0.0273961238986 -0.25210963169)
(0.126163910333 -0.0645897254098 -0.20537678254)
(0.265954003135 -0.0306527965002 -0.183059148293)
(0.807547833137 0.00528069372395 -0.0194257975873)
(0.809211870505 0.00298190408534 -0.0175015452458)
(0.781285669976 -0.000759314482349 -0.0152943927665)
(0.779291059922 0.00199163950534 -0.0146698035268)
(0.809906298203 0.00649985785134 -0.0176160639486)
(0.780895180661 0.00115205773932 -0.0155346771955)
(0.806989049679 0.00213108727701 -0.0193682253163)
(0.808269448769 0.00807089817471 -0.0174484986562)
(0.811255016512 0.0114182171908 -0.0141533409521)
(0.780034394832 0.00325572277104 -0.0135487637525)
(0.781482477643 0.00367771212212 -0.0130939928653)
(0.810619166043 0.00938744495084 -0.0156675619125)
(0.808956540835 0.00993697782955 -0.0159098927999)
(0.781499094596 0.00248343012994 -0.0143727639516)
(0.810491183314 0.0106457231178 -0.00560364416126)
(0.811251595095 0.0113563937675 -0.010480063579)
(0.77945866896 0.00444079614898 -0.0112549096298)
(0.776314930693 0.00675844087269 -0.004796872596)
(0.810753609585 0.00958687219513 -0.0114568073449)
(0.811418601124 0.0127875194064 -0.003819891923)
(0.776574805721 0.00528557660387 -0.00670977650636)
(0.810297470884 0.0124199956528 -0.0117566489177)
(0.812272902117 0.0127638686987 -0.0120103457185)
(0.782818806719 0.00374788198165 -0.0120390724197)
(0.782418300281 0.00376025194226 -0.00916565516056)
(0.80965554678 0.0115105843404 -0.0137255573155)
(0.812763907361 0.0133863700385 -0.00993236309603)
(0.783444503242 0.00322056048714 -0.0100146011307)
(0.810907087324 0.0127734167856 -0.00997385989533)
(0.81344093985 0.0136195352757 -0.00683052196629)
(0.783883157021 0.00273119384044 -0.00830016893294)
(0.785182324174 0.00135423793568 -0.00728098507254)
(0.81315240793 0.0135547990953 -0.00831039025369)
(0.811541282654 0.0129705565682 -0.00849421636014)
(0.784491390032 0.00247238260714 -0.00890338484094)
(0.813276743816 0.0140599578385 -0.00151746405772)
(0.811618042796 0.0128028841235 -0.00891651097244)
(0.777845396547 0.00641860160464 -0.00455864805112)
(0.781937615528 0.00494220887572 -0.00707351338525)
(0.812678871437 0.0139201012323 -0.00267777508415)
(0.812004993386 0.0134166385718 -0.00734480406367)
(0.778431510633 0.00544365956111 -0.00289641464902)
(0.811716582174 0.0146873228493 0.00142326939754)
(0.810588813778 0.0147141793532 0.00805823739182)
(0.775286609135 0.00685939376531 -0.001362966282)
(0.770160134369 0.00623807310589 0.00452791813189)
(0.810910145847 0.0145644178053 0.000298112244162)
(0.811562842849 0.0149699713675 0.00795078116289)
(0.775787879618 0.00544837796863 0.000486795997608)
(0.81354541988 0.0140092105774 -0.00225160939653)
(0.812755318892 0.0136703178546 -0.00525975804972)
(0.783178662027 0.00349247819468 -0.00672187376864)
(0.780738979551 0.0018784338076 -0.00309783576069)
(0.812449124764 0.0135213638361 -0.00642433877437)
(0.81369373209 0.014078472813 -0.0019613447096)
(0.779743788264 0.00401770607819 -0.00391728859939)
(0.812147140409 0.0144427334873 9.82733977049e-05)
(0.812671917932 0.0146727294034 0.00439994924401)
(0.77152276322 0.00467324588588 0.00217814672053)
(0.777682917933 0.00174645568337 -0.000764572389743)
(0.812281114075 0.0147639565005 0.00510640413131)
(0.812668516485 0.0143590718071 3.92940337831e-05)
(0.77701471042 0.00377397862555 -0.00101351026403)
(0.808044892947 0.0176906430595 0.0156200091705)
(0.808269896136 0.0172491321905 0.0106610877532)
(0.760169111232 0.00897189161827 0.0102442514452)
(0.766453953896 0.00654597046872 0.00714380670743)
(0.806529755203 0.0186461675169 0.0160492163235)
(0.809808062161 0.01625121411 0.0102440380204)
(0.761031905497 0.00790784288774 0.011522909039)
(0.806967890505 0.0194419861077 0.0159919441102)
(0.806481124411 0.0221775961262 0.0197167234461)
(0.756325312971 0.00905589406719 0.0115252207317)
(0.753340704101 0.00893098074935 0.0132008449403)
(0.805429171833 0.0205727956656 0.0166937540362)
(0.756409001218 0.00808693099978 0.011103802491)
(0.808036447355 0.0208225823972 0.0178337785808)
(0.80928616329 0.016575496018 0.0109727269388)
(0.811721549131 0.0147809710007 0.00588241829087)
(0.767747719702 0.00477898521658 0.00465583419176)
(0.763659678553 0.00407222551002 0.00653797348482)
(0.810999475327 0.0153678711923 0.00684566083524)
(0.810251250293 0.015985118878 0.00924126844838)
(0.762344928184 0.00617668176454 0.00763228586893)
(0.808781739063 0.0179614030664 0.0108844733669)
(0.810157484778 0.0172935300161 0.00977501802944)
(0.754194420509 0.00759524229732 0.0097457825529)
(0.758903258693 0.00465711557703 0.00646204696006)
(0.809658977439 0.0167451861644 0.00915232963407)
(0.757962798421 0.00678772455323 0.0079191071954)
(0.809494437209 0.0190674157674 0.0121028080841)
(0.813998771661 0.0138983471407 -0.0010285485176)
(0.813254615344 0.0137559371635 -0.00455795352855)
(0.780800036189 0.000420892615341 -0.00334071320932)
(0.783766704345 -0.000604369082075 -0.00379565162917)
(0.813811034919 0.0141061694275 -0.00208130113628)
(0.813583582895 0.0136361721533 -0.00325214261042)
(0.780964131638 -0.000592585509012 -0.00233073984791)
(0.813202831917 0.0140982063293 7.77149945719e-05)
(0.813011592164 0.0146286941461 0.0026976964223)
(0.777883769343 0.00023328313229 -0.00179513147175)
(0.773552003886 -0.000634117152267 0.000892963036059)
(0.812913304438 0.0142019070362 -0.000514324228604)
(0.813148081392 0.0146734813341 0.00281200625006)
(0.778049641342 -0.00113934486942 -0.00132813472187)
(0.813552553024 0.0139902265628 0.00133205450049)
(0.813142258977 0.0136443880791 0.00455728850105)
(0.773483547244 -0.00110274680928 0.00184359875349)
(0.777555687004 -0.00122537896115 0.00157573717437)
(0.813302720475 0.0144367981462 0.00351289538003)
(0.813826228801 0.0133776932822 0.00252508974526)
(0.777731178174 -0.00154094869932 0.000138522337836)
(0.811154445723 0.0147060779936 0.00618312333761)
(0.812334164531 0.0144412684871 0.00386694506819)
(0.764314415146 0.00244028847598 0.00450897265468)
(0.769433399377 -0.00114372302367 0.00197412786219)
(0.810906423648 0.0152926220817 0.00663654580961)
(0.812565274242 0.0142358186942 0.00387902829871)
(0.765175818835 8.70329766091e-05 0.00419887082489)
(0.810395355132 0.0147403478018 0.00610653737411)
(0.810589210092 0.0158922437497 0.00744286040282)
(0.759795917769 0.00279457013024 0.00470204288113)
(0.757192011567 0.00142723946557 0.00559687215635)
(0.810318837998 0.0156292754301 0.00671577553273)
(0.760370713944 0.000631235798447 0.00389037188828)
(0.810517327036 0.0146385182566 0.00657926054955)
(0.811376416305 0.0142076986526 0.00579078319294)
(0.812548927698 0.0131924591682 0.00495579760936)
(0.769886906818 -0.00186199410466 0.00247980073871)
(0.766088712651 -0.000881390597499 0.00517401743061)
(0.812684510048 0.0139521487304 0.00407279289342)
(0.811105167108 0.0132684967854 0.00646980283372)
(0.765900280706 -0.000751990833326 0.00423158326488)
(0.810513314745 0.0140950712412 0.00550208492433)
(0.810042411389 0.0125664295616 0.00553637103675)
(0.758418129431 0.000166009756221 0.0050087852974)
(0.762622756515 -0.000739754163715 0.00424800607966)
(0.810321222762 0.0132114551129 0.00593409163363)
(0.761831650513 -0.000471567114074 0.00395932121081)
(0.810422227968 0.013656227777 0.00565169798519)
(0.810734231469 0.0114427750294 0.00687912357433)
(0.812479430309 0.0123886921269 0.00527101923602)
(0.766541576579 -0.000877241940586 0.00504955754303)
(0.770198579795 -0.000358750866621 0.00456855507369)
(0.810966682075 0.0123394988665 0.00640590793596)
(0.812267085176 0.0116683466351 0.00581297436299)
(0.766470683163 -8.22933008699e-05 0.00564624510844)
(0.809676038608 0.0116734796335 0.0049607618565)
(0.763387836787 -0.000725114100471 0.00421020768648)
(0.810208158779 0.0124373069787 0.00576628385636)
(0.816920812573 0.00442382035918 -0.000904511166529)
(0.818723193464 0.00323048191052 -0.00088426421904)
(0.819568938065 0.00157341851289 -0.000765592772114)
(0.817222945445 -0.000893736849761 -0.000164400052634)
(0.809927296261 -0.00210191504022 0.00041491047478)
(0.834917112923 -0.0513673895443 0.000731234221273)
(0.817379185797 0.00461703099698 -0.0011226379393)
(0.819066724427 0.00319264596031 -0.000618298904757)
(0.820060877562 0.00233627129922 -6.38391516815e-06)
(0.81826713222 -0.00102133360906 0.00191461277737)
(0.810957153524 -0.00289707701526 0.00480706028619)
(0.839150097276 -0.0577188831709 0.00615634607025)
(0.816039137993 0.00627349352899 0.000553501189447)
(0.811623033859 0.00657638437408 0.000652915149961)
(0.788241262721 0.01086738966 0.002446341987)
(0.783939194343 0.0114607675426 0.00208676451217)
(0.780449838161 0.0126056736961 0.00263690698196)
(0.772419628427 0.0163402167617 0.000173698054905)
(0.781464175944 0.0198952479103 -0.023759644009)
(0.714388741683 -0.0135068787818 0.0244310448657)
(0.826645890613 0.0052197358452 0.000214558946464)
(0.823738659934 0.00343192978643 0.000190738730727)
(0.819574392925 0.000655782787636 -0.00122679842614)
(0.817728637306 -0.000975132699576 -0.00323029377403)
(0.816491935471 0.000350185041378 -0.00352975330993)
(0.817733284456 0.00348073329845 -0.0027723310477)
(0.810288590635 0.0107243258621 0.000523467220742)
(0.841075649945 -0.0839013528821 0.0126823320376)
(0.820327875466 0.00582118689087 -0.000409479756549)
(0.822132361827 0.00440130902523 -0.000816711578954)
(0.822323406947 0.00349966621591 -0.00135889210893)
(0.821745253901 0.00312735496111 -0.00222591630853)
(0.820425655505 0.00297992147802 -0.00205502127312)
(0.820304552458 0.00244111237396 -0.000611143065189)
(0.812186706283 0.00112676058365 0.0015661441837)
(0.844256777272 -0.0666728694526 0.00463150005183)
(0.816433298746 0.00675370008864 -0.000868708902002)
(0.819271577829 0.00397495356794 -0.000663869706117)
(0.820403145094 0.00224990874345 -0.000920437603493)
(0.82055836916 0.00109145125546 -0.00110554592927)
(0.819680076714 0.000690464507838 -0.0011788020239)
(0.819586679552 -0.000292851485724 -0.000310770018642)
(0.811469938701 -0.00151630174347 0.0012827332935)
(0.839841255736 -0.0695403986756 0.00303744349465)
(0.819018238861 0.00126134161987 -0.000783570366043)
(0.818639925534 -5.06270734741e-05 -0.000226586607283)
(0.810664833531 -0.0016966249016 0.000759481563734)
(0.837840142518 -0.0547145671181 0.0014593399771)
(0.638608090718 0.0424350157141 0.0135610883833)
(0.634248991972 0.0403474451008 0.0140258733635)
(0.644226983149 0.0254545635105 0.0194313724937)
(0.641997961666 0.0223196538846 0.0165665542176)
(0.638995118663 0.0231220009622 0.0158202014852)
(0.604931507794 0.0259637052779 0.018524311474)
(0.678888572406 0.0384790845939 0.018562783737)
(0.225403414653 -0.060981419787 0.0608031264982)
(0.774087940911 0.0127852418573 0.00893263855175)
(0.768674547554 0.00981553802999 0.00852811590966)
(0.774507202686 0.00291125656293 0.0112790580694)
(0.772336334259 0.00247044845162 0.0133644158592)
(0.771535460165 0.00483153250539 0.014509409262)
(0.773063969964 0.00795525894809 0.0184313015243)
(0.77491516358 0.0435292212818 0.0292906763664)
(0.811458076585 -0.174003055247 0.0474577200057)
(0.821601719644 0.00630290154201 0.000157220146808)
(0.821419452576 0.00499634474911 0.000126003790413)
(0.821226900857 0.00537488575296 0.000130723060328)
(0.821295490661 0.00649638435705 0.000416579475237)
(0.821286204998 0.00700622153345 0.0018199660582)
(0.823432844631 0.00619208377778 0.00474843533814)
(0.817068012775 0.00344446325727 0.0121879111569)
(0.882787148388 -0.118231509651 0.0171983389065)
(0.816824614512 0.00613046283429 -0.000674652218406)
(0.819500624332 0.00417312526618 -0.000512129046339)
(0.820614483849 0.00283755619113 -0.000185764997247)
(0.820614129765 0.00230691157737 0.000117326383235)
(0.820280865975 0.00172167820886 0.00114971894716)
(0.82205844253 0.000181312977195 0.00385145597117)
(0.815085842822 -0.00209969259774 0.00879254823538)
(0.854684286425 -0.0876334688515 0.0123813640251)
(0.819564182217 0.00176341327337 0.000708405446719)
(0.820159453596 1.17026711563e-05 0.0026013498978)
(0.812499771583 -0.00263021772159 0.00597141105853)
(0.845645297703 -0.0667877197495 0.00780569071241)
(0.633680829056 -0.0145876771594 0.0228440672589)
(0.626470848363 -0.0149899934723 0.0213335875846)
(0.631877159705 -0.0188709183628 0.0231856493346)
(0.633170732161 -0.0172169181807 0.0213145428001)
(0.635665836619 -0.0130929127663 0.0228689115342)
(0.62719324659 -0.00232224689482 0.0263570432447)
(0.684410739458 0.0514296396512 0.0665799621194)
(0.519396385914 -0.389788205094 0.0164801039702)
(0.734563984951 0.00497163821386 0.0262093974133)
(0.730877700671 0.000506822206448 0.0250558287679)
(0.781863366181 0.0012585364543 0.00909420570881)
(0.781688355741 0.00153026644302 0.0103844450574)
(0.783621665311 0.00335207118891 0.0122077261264)
(0.792719628898 0.00222400322342 0.0122089788253)
(0.804944504098 0.0185432686855 0.0138531326899)
(0.903184147944 -0.200163975795 0.00631807701771)
(0.821439150663 0.00461322485107 -0.000357062961209)
(0.822435552583 0.00421847482861 -0.00110390483457)
(0.822741682113 0.00267520079636 -0.00183742584911)
(0.823192383938 0.00202601164191 -0.00158371991614)
(0.824196511213 0.00152319065947 -0.000134002708988)
(0.830521290094 -0.00154722225151 0.000981236743313)
(0.824561604226 -0.00679658926417 0.00131270561811)
(0.914181682104 -0.180755538572 0.00275128970064)
(0.812649439847 0.00981074303834 -0.000924774971566)
(0.816226468928 0.00541609897468 -0.00196837390587)
(0.819965681323 0.00310226900719 -0.00217153867179)
(0.821872567858 0.00210896819148 -0.00179759514429)
(0.822275135896 0.00118132383339 -0.00149360494309)
(0.822715919833 0.000187558936857 -0.000308287802483)
(0.826769147386 -0.00259938688227 0.00124013633479)