/*--------------------------------*- C++ -*----------------------------------*\
| =========                 |                                                 |
| \\      /  F ield         | OpenFOAM: The Open Source CFD Toolbox           |
|  \\    /   O peration     | Version:  v1906                                 |
|   \\  /    A nd           | Web:      www.OpenFOAM.com                      |
|    \\/     M anipulation  |                                                 |
\*---------------------------------------------------------------------------*/
FoamFile
{
    version     2.0;
    format      ascii;
    class       volScalarField;
    location    "1.7";
    object      p_rgh;
}
// * * * * * * * * * * * * * * * * * * * * * * * * * * * * * * * * * * * * * //

dimensions      [1 -1 -2 0 0 0 0];


internalField   nonuniform List<scalar> 
28582
(
19555.3644936
19555.0415669
19554.9211411
19554.5961917
19553.800135
19553.3681389
19552.7794383
19551.7911614
351.965468373
365.38684389
0.0279843092985
19552.05975
18566.7347058
18590.999003
19551.7209718
19552.2403097
18550.889181
19551.0370979
19550.9854355
19555.3873038
19555.451665
19556.4033471
19555.0089247
19555.0463327
19556.2192922
19554.0546508
19553.9377251
19553.8942704
19552.0163164
366.308890422
0.00368964646949
0.0145644364973
19552.5303222
19553.4888288
18653.7821296
18704.40786
19553.70971
19552.6730146
19552.3994195
19552.8599806
19551.4811792
18594.202175
19551.5915562
19551.7338667
361.467967055
348.765609752
-0.022817104262
-0.0062248119537
363.454124448
0.000460294868136
19550.8999496
19550.8677539
18639.5805396
18731.1376716
19552.8040026
18630.1090873
19551.3591615
19550.1066088
19550.1963598
18666.4896136
18632.8777537
19550.8376449
18547.4833099
19551.4470646
19550.2318511
19549.9349455
18625.5591049
18657.291415
19551.2160639
18597.3975695
19550.5348951
19550.0875396
18583.5564924
18648.0804984
19550.4007417
18634.1006302
18569.6055063
19550.8358252
19550.7440271
18662.0023344
18647.481787
19550.3644819
18704.9698358
19551.8703462
18583.4507905
335.278954941
0.635802175313
308.556202435
327.642463123
0.146467865311
0.465926896457
353.617923885
-0.0283852851905
-0.0141557368866
365.912701729
0.460482928189
371.49163274
0.0584259301415
19552.1657157
19551.4246407
18744.9854657
18893.7011983
19552.5920868
19555.2129957
18764.6212702
19550.0401905
19550.0786069
18816.2130591
18666.3143889
19552.6438464
19551.2030667
18592.3405402
18807.9138317
18691.7535736
19551.7980858
19550.5210752
18671.9084344
19551.5204342
18597.586684
19550.4021956
18565.1608194
18660.4164999
19550.7937561
18635.2922308
19550.9713023
18607.3999691
19551.1111632
19551.2749697
18644.4932807
18629.0738167
19551.6425216
19551.7764326
18563.4617795
19551.3922312
19550.5988268
18682.9817787
18589.8512534
18664.5871459
19550.8976176
18624.3396013
18693.5503166
18609.3538063
19551.082679
19551.025431
18623.2633528
19551.4639527
18560.3049616
19555.6164611
19553.7475204
382.269067012
0.0278890329582
19552.2744758
18560.8030186
19553.7591247
19555.2323492
18576.9335126
18524.5281862
18543.5736793
19557.2946759
19559.7277404
18552.2095482
18562.8340631
350.006788699
384.964629108
411.488973027
0.336516128958
1.06363857667
0.972626899583
446.158539857
487.072617868
19550.2120332
19550.5936292
18729.8616304
18632.6998174
19551.7512407
18628.5571164
19551.0643859
19552.3217253
19551.8024738
18626.0032387
18648.3721325
19552.9317109
19552.5991932
18585.5836047
19552.0645684
19551.4053969
18652.357916
18582.0813398
19552.3324681
18583.19866
19552.35833
19552.7051867
19553.9712364
18591.3877795
18597.773505
19554.2115117
18547.6562007
19553.4774888
19557.2142863
19555.3070171
18583.5238487
18576.6354814
19555.6865018
18560.0103256
19557.4589705
19559.1554759
19561.2317086
18599.8480235
18561.346522
19561.4307958
18585.4984561
19559.2391779
19578.2341576
19573.1571583
19567.7301467
19565.9838671
178.75654165
175.048452026
201.976467677
212.803665648
257.778350046
0.0234060858511
0.0703934914582
0.0186590228525
0.0452358388554
0.0208676030123
0.0254336213048
19580.4649899
19579.6214602
19354.113961
19341.4145588
19580.8006821
19354.4250256
19578.0883292
19576.3243392
19339.4217013
19294.6731297
19578.2653044
19575.3525544
19573.6995264
19351.9680848
19375.9407236
19284.0721992
19241.7279303
19570.4936309
19565.0704079
19387.833297
19069.0868713
19229.9038698
18938.9730247
19570.9152354
19569.4968922
19248.2681454
19192.7875261
19122.0923539
19563.0374835
19566.2907543
19562.3956274
19165.1555215
18892.5283905
19019.8331089
18808.0045907
18982.8241352
18791.8372091
192.223928531
194.232837042
179.250707075
0.104830092467
0.0977457213346
0.0697493731432
0.0769321690953
0.0829424714886
-0.000802685433276
0.04193949147
-0.033105703319
197.898567178
203.338319407
168.068964212
186.264058968
181.349753407
0.0659930131797
0.0578924233102
0.0912776223467
0.0203605122356
203.600951027
190.544693228
225.668759271
0.00733334585782
-0.0157952315747
-0.0091343076062
0.077282852099
200.228694005
223.668902386
0.0632228430029
0.138742756651
0.453702076582
245.541863064
239.346657578
272.662040847
0.25300524734
0.479956446135
0.744136379985
0.899178783614
19579.1365476
19579.4911351
19357.1092814
19361.6982286
19579.3343962
19347.6427734
19579.2840372
19578.9426581
19578.6549729
19353.9780428
19347.342523
19578.9578469
19578.6910382
19343.1112088
19580.1472599
19578.604619
19367.430095
19372.6738303
19579.5428646
19578.7753655
19383.3090243
19577.0466007
19577.9371788
19344.7781914
19321.1259228
19578.1547557
19576.7562102
19300.4553605
19576.4065594
19575.6448132
19309.8615922
19324.0432417
19575.944854
19576.4920039
19280.2985584
19576.599719
19577.82739
19368.8798863
19328.7036829
19577.7578125
19576.5993148
19336.9893673
19575.9026925
19577.4227503
19365.6707777
19356.431972
19577.3688246
19574.8563713
19366.8033579
19575.203481
19574.508186
19314.0717795
19293.0345795
19575.5597492
19573.4726217
19304.384708
19574.3794656
19572.2760875
19327.1267944
19264.6621822
19572.9919467
19572.9352664
19320.6551765
19572.5447066
19576.4750845
19356.8100171
19291.9206568
19574.4542523
19573.995222
19260.2212249
19568.9285054
19566.6956967
19210.9922457
19224.3917061
19571.3808563
19211.7390279
19564.284725
19570.2172017
19570.4019822
19258.1810666
19231.3207038
19572.2092749
19567.7643515
19206.2532921
19566.8648004
19561.8021401
19188.7260818
19092.2275604
19565.6984764
19162.4108236
19562.7809723
19572.0357028
19573.4396715
19271.3230927
19277.3098285
19572.4456332
19573.4076905
19224.256602
19570.1485469
19570.3877283
19248.6591726
19201.7695932
19571.5827818
19568.5702407
19182.7698505
19569.4084713
19568.1048744
19172.6288122
19216.6111551
19567.9277047
19570.2290872
19136.7709795
19565.2414103
19568.5770453
19192.7758266
19151.6433941
19566.4190404
19567.6911121
19046.4987021
19562.4405788
19560.4896679
19067.7056985
19059.4241062
19564.0537302
18974.6858195
19560.3289845
19564.5410849
19565.3866964
19141.2870289
19070.015566
19566.8439197
19564.0598175
19006.141051
19561.5798516
19558.6648944
19010.2017502
19007.893215
19562.5053501
18916.2715145
19559.5811161
19563.759515
19565.2863198
19044.7392276
19133.989341
19563.7462201
19566.9964579
18976.9165449
19558.969084
19006.9835431
19562.1209631
19554.3114986
19554.2193017
19554.7984402
19557.7211646
19558.8649975
19559.2283466
19553.8777291
19553.7859789
19554.3959389
19557.8790939
19559.3548645
19559.5783367
19543.967982
19548.1734619
19550.2728602
19552.0839615
19553.7579614
19555.4785464
19557.0425369
19557.4286145
19546.9811983
19549.3064765
19551.3521167
19552.630928
19554.0798578
19555.7496042
19557.2672901
19557.6186981
19550.8254435
19551.178806
19552.2074841
19553.2787859
19554.6176571
19556.2191994
19557.6608292
19557.9705786
19553.5196108
19552.932339
19553.3074906
19554.0776286
19555.2394111
19556.7265408
19558.0595376
19558.4149863
19555.8453626
19557.2371118
19558.4659999
19558.8097677
19540.9727541
19546.9613446
19548.8879242
19551.2802828
19553.4537609
19555.5570995
19557.3821588
19557.7040271
19545.0420352
19548.1727649
19550.8543654
19552.1617085
19553.8518548
19555.8712789
19557.6776258
19557.9281531
19549.9411775
19550.5888892
19551.5361153
19552.7632582
19554.4015871
19556.3529498
19558.1366572
19558.3879891
19553.0159944
19552.429296
19552.7799787
19553.6425364
19555.0612798
19556.8875121
19558.568512
19558.887381
19555.6766288
19557.4000229
19558.9762216
19559.2221645
19538.2531047
19545.2789094
19547.8324704
19549.9775508
19552.6669066
19555.7205753
19558.5437945
19558.2382936
19542.450044
19546.7864455
19549.1462326
19550.6382869
19553.0726721
19556.1176271
19558.8726842
19558.5480857
19547.97988
19549.0605489
19550.1955644
19551.5540251
19553.8155253
19556.6805086
19559.4116461
19559.4185382
19554.5912594
19551.8072587
19551.2090506
19551.5719521
19552.533008
19554.5431529
19557.2696325
19559.9281633
19560.1183456
19552.6838173
19552.5335606
19553.3049799
19555.1724131
19557.790859
19560.2399788
19560.2195058
19558.149868
19560.5235874
19560.3407009
19538.0138055
19543.7038749
19546.1517363
19547.6981227
19550.3345668
19554.4653018
19559.50109
19560.501352
19538.5522974
19541.3115631
19544.7756122
19546.9288687
19548.2310511
19550.6862371
19555.0569759
19559.9349237
19560.2738345
19557.6658585
19547.9077726
19546.2021722
19547.3956554
19548.1859584
19549.2168287
19551.5508731
19555.705414
19560.4666944
19561.6075994
19553.3008778
19550.5818032
19549.8285803
19549.8309575
19550.4585072
19552.4880616
19556.4377781
19561.0633461
19562.7522605
19551.608521
19550.8373115
19551.3331133
19553.2820295
19557.1030382
19561.6284876
19562.6656747
19557.3338855
19561.7961844
19561.980608
402.322644646
410.193947393
399.52440013
437.567131775
469.097907918
503.213203517
565.826856383
669.89929798
257.436887375
361.37290962
404.003032451
409.389323062
411.287440518
438.025517894
462.970829748
481.038948488
542.466564639
664.707378067
292.817869857
357.336235555
380.722399827
373.237019148
383.331922923
411.00104954
437.368902481
471.437346967
530.654608394
634.239424105
315.125015243
326.962891434
341.967862396
362.71047817
396.116802738
421.426395526
465.842186028
529.168226618
618.651850993
344.150236834
367.453514888
387.357013596
405.809106605
443.024898873
514.549829486
623.264920611
436.329894793
527.985261124
651.034014238
0.0335131372651
-0.07612932659
-0.0998631015723
-0.0541756753036
-0.0555266231048
-0.0678291701234
-0.0403615503442
-0.0466636838901
0.0194963503403
0.292431569393
-0.0040219169968
-0.0762181107156
-0.0894065394632
-0.0528783976652
-0.03293365495
-0.0281913491239
-0.00845944114853
-0.0131144089942
0.0581530913808
0.26486003242
-0.00145570273153
-0.0573367523185
-0.0434704539736
-0.0139783100703
-0.00465804171601
0.00240684054426
0.0124815270714
-0.0122409149566
0.0297909391939
0.182232604778
0.0299906064354
0.00365807864407
0.0153413648911
0.0108154435777
0.0110557278563
0.0199009695206
-0.0112421680357
0.0132549024757
0.159527275502
0.00507175800113
0.0149405963592
0.00216356195227
0.0223412366436
0.00556215373432
0.053448599915
0.183759555462
-0.00919748887681
0.0464489379128
0.261104776778
19546.7774258
19545.0626817
19547.6226015
19542.9190444
19546.1555729
19544.1134824
19546.7267115
19548.8993921
19548.5405955
19549.3090109
19547.8882663
19548.6335416
19548.1500093
19549.0592876
19548.5269157
19548.659629
19549.4473366
19546.3684703
19548.0588755
19548.3746326
19549.2590295
19549.7999099
19550.1073045
19550.7443345
19548.8887502
19549.4831488
19549.8237744
19550.4533698
19544.6040351
19541.762139
19545.2351379
19540.0003266
19543.485021
19540.2854687
19544.3730156
19548.0638262
19547.4283962
19548.6388662
19546.1333523
19547.4074522
19546.6918538
19547.9263105
19546.7423933
19547.6370135
19548.5300606
19543.6047567
19546.0393427
19546.7710499
19547.5789683
19549.0670279
19549.2149504
19550.0673316
19547.7122282
19548.537729
19548.5415561
19549.3883245
19542.3166052
19539.4691765
19543.2227714
19538.2954317
19542.0322177
19539.7221962
19543.1696051
19546.5847958
19545.7550919
19547.0896334
19544.9039927
19546.4403993
19545.4712417
19546.9545167
19545.0828821
19545.3176902
19546.5671179
19542.3570902
19544.5498312
19544.6242757
19546.3011418
19547.5330617
19547.7102895
19548.5321288
19545.9828561
19547.0814227
19546.9898105
19547.91593
19534.1458908
19536.1398187
18253.8969536
18277.4967633
19541.0819602
19539.1407534
19541.8391755
18294.73054
18349.3214529
18271.6936535
18349.0777132
19545.3296947
19543.8804666
19545.301246
18387.4712834
18468.8407956
18357.4587144
18426.0921038
19546.7971842
19546.1694638
19546.9082384
18482.0440323
18389.303936
18434.5533952
18396.4404544
19548.9394926
19547.8022553
19548.8675646
18384.948474
18379.1391585
18408.5263122
18369.8285159
19552.2163045
19550.3687647
19552.3341545
18386.6600032
18386.7324407
18400.6133972
18411.9053281
19557.0995594
19554.6919757
19557.3368257
18424.2105712
18440.5145007
18460.0773827
18491.3466193
19560.8243493
19559.5501949
19560.7647916
18486.6201875
18487.1990558
18532.7896473
18462.3574928
19557.4187511
19560.0634518
19557.0633578
18416.772811
17756.157158
18337.7026907
17793.7325129
19556.9071897
19549.0061647
18946.3776572
18377.4874191
18855.4951978
18459.8524674
19538.9371207
19543.5868334
19542.6268556
18294.7312519
18301.7301118
18359.967585
18383.9447105
19543.5104172
19543.8124131
19545.2701267
18288.3316055
18363.0157299
18335.5805248
18470.3889304
19545.7872809
19546.0601679
19546.8239847
18364.3768047
18423.864535
18425.8228531
18490.3422964
19547.4518444
19547.3634974
19547.954417
18428.5587489
18396.3143381
18442.4298686
18448.4768642
19549.162588
19548.6166213
19549.6742132
18410.7416954
18375.7808306
18412.1478109
18427.2236531
19552.6487352
19551.0786698
19553.0632113
18407.3699732
18415.0731234
18430.7933773
18462.0242142
19557.6825316
19555.3484456
19557.9261311
18463.6612635
18503.4362489
18497.7343573
18530.2096191
19561.0001736
19560.1379659
19561.3396708
18545.150672
18466.6652443
18568.6079207
18530.1509422
19557.3199568
19560.7953222
19557.9858936
18335.1750243
17810.6743342
18416.5557301
17862.9725298
19551.9728631
19557.8109479
19553.9747814
18805.6813623
18473.6998687
18691.7531467
18574.9815664
19546.0402065
19550.7890632
19548.9517961
18375.642098
18416.2090418
18448.9701882
18580.0771827
19546.7934351
19548.275779
19548.3628991
18364.5142544
18502.6797445
18472.2617655
18609.8816343
19547.8164897
19548.6139843
19548.8173773
18464.9266159
18512.345941
18549.6808971
18593.8029496
19548.5781476
19549.0527684
19549.3183623
18461.9712061
18462.2037403
18530.0440998
18530.5576658
19550.1261127
19549.8275999
19550.6960452
18423.9247145
18434.9222711
18475.924865
18490.3676395
19553.4541374
19552.0421318
19553.8770018
18437.7673111
18462.9397266
18484.0295043
18491.0978607
19558.2038223
19556.0664997
19558.5268671
18495.2513322
18529.1583813
18517.8760306
18535.9365663
19561.8528855
19560.7485778
19562.239904
18566.4771522
18543.5432684
18569.6279785
18569.0783376
19559.1121322
19562.273726
19560.249551
18445.5012058
17888.7716996
18505.5020132
17999.7543939
18681.4271796
18634.1481947
19551.5502115
19554.0070209
18507.3022946
18645.6260292
18794.5068223
19550.0297481
19552.5843263
19551.6129071
18524.5176476
18633.5430431
18633.0160257
18699.1207115
19549.6847676
19550.9241332
19550.5604127
18560.6318189
18601.4994604
18557.5567037
18609.4559006
19550.014989
19550.3948611
19550.5244255
18536.6817223
18534.8866174
18515.6233329
18553.8753486
19551.1891938
19550.9393877
19551.6844383
18484.7153556
18494.5849218
18507.6527277
18524.2522442
19554.2970697
19552.9311439
19554.6831957
18490.2885617
18494.0692008
18520.0482142
18532.7197817
19558.836504
19556.8063928
19559.1956781
18519.5834389
18538.8476935
18558.0337777
18573.4664259
19562.5864236
19561.326484
19562.8180665
18571.6570831
18569.2269224
18603.8600566
18587.7497797
19560.9040067
19562.8398218
19560.9664954
18510.6736824
18019.2736092
18517.7519143
18011.1176474
19551.0492006
19551.5302442
18558.4353145
18601.8029313
18581.3733495
19550.901918
19551.2583408
19551.2811474
18518.0027162
18554.6966712
18539.3584257
18569.827522
19552.0668199
19551.7252593
19552.4627015
18518.7472146
18528.2630931
18551.5765131
18580.0983309
19555.0088585
19553.601034
19555.2097195
18528.1119998
18544.66603
18574.3870725
18580.8949267
19559.4952341
19557.3022278
19559.7240527
18568.7318647
18586.0264607
18596.4047365
18595.6349218
19562.8841954
19561.7754049
19562.7971155
18614.7319936
18583.948263
18619.4213008
18544.2815613
19560.4860493
19562.1744079
19559.893853
18499.3196407
17979.4127478
18421.348839
17925.0137272
19555.2648572
18578.9284193
19559.7413307
18588.6464209
18592.5614743
19562.7371886
18609.9837773
18517.128203
19559.557035
18389.1315291
17913.4397149
0.106080314103
0.150041681665
0.064801728958
0.0151732133879
388.395233963
390.479688129
0.0862210081821
0.158150099952
0.0558388186151
0.135035550605
416.149419043
398.661224063
417.894562479
0.20978391798
0.0794981587759
0.38742403042
0.464850103355
394.087545543
415.810165214
407.518514145
-0.00187297444022
0.0238385413375
0.226827907134
0.136391989874
416.425768443
408.91821353
422.50690526
0.0467886224757
0.165614862735
0.19342401509
0.135308849478
452.561834258
442.837473721
458.619047154
0.347255493208
0.410698990728
0.136014859009
0.00861571232751
482.201819087
469.446470993
478.179842979
0.391276771345
0.39147578517
0.0456194481277
0.127028286619
528.823634711
493.057890469
518.1803893
0.344212665678
0.660357391664
0.478525107438
0.960848987981
607.480004093
555.718071766
608.641455061
1.3644941734
3.59999783876
2.17428041781
4.41020614913
724.396015111
670.853174193
715.111230735
6.46965062537
9.77273523249
6.75808515118
9.50986171273
315.32507769
274.75093765
324.152040622
0.0767475140786
0.0234979375516
0.289013408641
0.198010083601
385.543660727
357.342499194
382.951467929
0.0473692799461
0.104137977746
0.096609430868
0.0370681333527
411.412988076
396.314892857
394.744428692
0.216427388193
0.459766051809
0.0607078215923
0.0164435596317
406.197816706
395.10700597
393.798773663
0.369895438222
0.253935130026
0.223829699124
0.185569304591
421.842469432
400.014974613
410.543629202
0.215200601503
0.204818521095
0.320069226279
0.151228768985
451.926143237
425.764542237
438.006579341
0.0316722506209
0.00966721264141
0.175525012806
-0.0247236630382
471.586795702
450.188035967
458.882404957
-0.0635975377788
0.0867446287716
0.0255043482713
0.000603028977735
504.634040109
473.855010485
498.305163038
0.216077818659
0.962927488557
0.175123331888
0.574900736218
603.146024823
535.340767177
586.496064347
2.26456093249
4.515541111
1.87131616937
3.97047164071
702.30764693
649.185864188
690.667759707
6.60094694144
8.96116865012
6.11431704644
8.52908704537
331.272822899
306.363369735
328.763809355
0.606924198617
0.473815253945
0.833157540733
0.382501021224
375.018305396
345.857622126
351.585511706
0.0879367886971
0.0199425175948
0.0981545559957
0.0214881025742
378.444627451
358.021327948
354.754278359
0.00486279922175
0.000488719305483
0.0166401759588
0.00546036487307
375.533443175
355.131616717
357.818745307
-0.000583442263336
0.0509868506215
0.0138201386709
0.0157667567871
396.67719051
368.526249301
384.713437111
0.055271719158
0.235244940718
0.0274123484261
0.00267838612778
425.753808203
400.58476213
414.377072407
0.113113962932
0.164773881924
0.0858527636469
0.00910300040354
451.547716863
429.240268747
446.549432571
0.00797116391643
0.0828149841663
0.0327586182081
-0.0136441605207
496.921153318
469.420286372
498.585444022
0.103303547338
0.529305866258
0.140598440667
0.404342402033
574.548696335
531.180146418
567.974424846
1.2980500835
3.38733863317
1.28445962105
2.8815089329
681.612592524
623.263178964
672.444553037
5.38319054606
7.86587454779
4.92095701664
7.43067753571
323.153152149
298.392003353
-0.00284515617483
0.0153986391005
-0.0129986815709
336.796578098
310.274316196
325.218476058
0.0169425469897
0.0146601340779
0.00709372985108
0.149829761698
351.176662143
339.130016527
351.213618046
0.00874364658632
0.0136105926321
0.255062429494
0.142111892187
380.066824849
362.924476893
378.269924528
0.0101912522029
0.0241342394001
0.031732277231
-0.00173301274228
408.101529743
392.373113034
404.328939417
0.0292294502566
0.115718445355
0.0173170898302
0.0292518688047
440.718020796
415.953784641
431.980598661
-0.0169835307612
0.0265142847867
0.0495786067572
-0.0283553780621
495.753083186
456.512277016
487.354748562
-0.00780779213987
0.385587219306
0.0701389375925
0.264719377426
565.920676148
523.295923768
562.73145178
0.996851689848
2.82412963571
1.20048045796
2.80454975022
668.19979015
617.958774727
666.271292396
4.71643614675
7.24977069187
4.76752009277
7.20715082273
357.402489137
363.363356518
0.393315619827
0.20854723574
0.504016973622
0.0353628149989
374.826046848
370.192509904
373.789461498
0.00465659373877
0.0126753936414
-0.000177342574523
-0.00116841887511
397.260571743
379.079770903
384.400367269
-0.0104083032275
-0.0205473209948
-0.00717549532137
-0.0288082491501
420.18593329
392.707428978
408.905212576
-0.0378679990294
0.0508217673404
-0.0373152419629
0.10396525162
474.559353698
434.136069503
473.134387563
0.0930127487127
0.606735503888
0.437626830089
0.960189062328
562.702402635
516.05057598
576.163336864
1.37077607305
3.24591176029
2.16002955502
3.89616996716
668.467847138
635.561002221
671.48477388
5.00696908369
7.41076592901
5.51183170591
7.61662637739
404.843195649
0.66554965798
475.957148475
0.665324707201
1.24642970278
0.649701628644
0.770017845714
593.921916323
2.43135726347
4.49045727578
2.01871819414
4.33760602841
678.847294369
6.16978568808
8.28551666285
6.43114615537
8.82169644701
19532.9205749
19533.8224929
18351.1032357
18393.3008421
19534.576514
18194.6236618
19532.8113663
19533.7012223
19536.2963856
18409.8665868
18428.5779585
19534.8597627
19536.6124096
18203.1164088
19535.4042719
19535.5982859
18387.2138875
18362.7838645
19535.2637681
18303.1591084
19537.7848685
19536.1136023
19539.8195697
18363.521818
18406.2276905
19538.2819015
18324.3429592
19538.9176347
19536.943132
19536.4426938
18389.366337
18410.7742132
19536.0908047
19538.8727608
18310.5299569
19537.6410694
19540.4162958
18401.2166176
18401.1975493
19539.4529513
19540.2494639
18319.4585575
19540.8959573
19541.1448375
18467.0241809
18410.108701
19539.9312461
18416.3792915
19542.8829047
19542.2462592
19544.3083612
18468.2881547
18481.4843351
19543.427677
18450.4213846
19543.9100119
19541.6264981
19541.0432278
18399.2438824
18435.9310784
19540.7171798
19542.5088001
18395.3459108
19542.3432051
19543.7169382
18467.8044589
18436.8953092
19543.4452877
19543.5006651
18419.8050548
19544.2939925
19544.6657821
18499.6400889
18450.8328565
19544.1046388
18425.715784
19545.1247675
19544.9179051
19545.1615322
18450.4570523
18462.3497236
19545.0894911
18425.3889085
19545.1800708
19544.6076413
19544.1072194
18445.9198613
18466.8540572
19544.1957423
19544.5940722
18420.7541716
19544.8409866
19544.8413271
18456.3645876
18427.4262223
19545.5549939
19544.581897
18428.0622437
19545.3451976
19545.3677289
18452.0925634
18420.7527741
19545.0986118
18366.1327341
19546.554005
19546.0524406
19547.1573567
18434.9124724
18428.1428793
19547.1036761
18375.7381026
19547.1935503
19546.3303512
19545.5958738
18410.3544144
18438.6571356
19546.2564505
19546.3593962
18365.4852273
19546.5992779
19547.1540729
18429.0013761
18399.5321048
19547.2382154
19546.7059714
18383.7360779
19548.3716601
19547.9244692
18434.2733766
18402.6691823
19547.6858868
18373.2700577
19549.1971119
19549.7562691
19551.2042211
18410.6488105
18445.1033259
19551.2624781
18407.6131012
19550.2752586
19548.5004982
19548.3033996
18399.0374261
18447.5688221
19547.769394
19549.6323171
18373.2192724
19549.8744575
19551.5297821
18455.7580457
18424.7125236
19551.4278541
19550.4983842
18412.6260025
19554.3473671
19552.6790952
18450.049562
18420.915287
19552.5434855
18415.171048
19554.4973927
19556.327178
19557.8893175
18435.1847627
18490.0481969
19558.766419
18463.3248936
19555.8580251
19554.256852
19553.2798591
18432.8515804
18500.2293525
19552.6248327
19555.2592161
18424.5801075
19556.650608
19559.0905024
18505.4025477
18488.2540387
19558.8422797
19556.9757024
18472.3113578
19562.7287541
19560.1117643
18504.2352821
18483.0329425
19560.9640091
18493.4187054
19562.1361065
19563.8157376
19563.3459874
18500.4801261
18517.2516449
19563.6067844
18516.2319525
19563.3309274
19562.1569482
19560.9131574
18496.4246998
18553.2584813
19560.3073418
19562.7711187
18504.4366894
19563.0805839
19563.0272716
18497.8253151
18537.1248086
19562.8560448
19563.9137221
18500.0963316
19557.1110103
19561.4916703
18349.5616041
18468.7555011
19561.751174
18302.3469758
19558.329226
19550.4922383
19551.3848902
18210.3808487
17783.2769289
18089.0219293
19550.5468274
19552.664498
19556.5073451
19560.1818302
18449.1609009
18281.0390701
19561.0314939
19556.861163
18283.9338667
19550.2314199
19551.0068596
17793.6390094
18179.3393449
19551.694925
18078.0800815
19550.5563671
19553.9428215
19559.4665469
19067.721238
19004.97834
19554.3115474
18692.2115183
19560.6123594
19547.4355324
19540.5240228
18812.1225068
18784.5173163
19548.4195962
19543.82867
18581.4227775
19554.0729473
19557.5607609
18980.0660163
18991.0104653
19555.2757707
18689.1270101
19559.8151873
19548.7149714
19545.6973525
18784.3734435
18805.3454715
19545.3727712
19551.6945228
18584.388275
19539.6826097
19536.1000722
18531.3563182
18625.9239606
19536.8631933
19541.5655202
18312.2616353
19537.5354161
19537.0931527
18469.7899266
18457.2481864
19537.9710043
19538.9536559
18251.9413908
19541.042374
19541.8001796
18650.3133326
18590.8819668
19543.3631793
19543.2856903
18349.889783
19538.0762176
19541.8516734
18480.1821015
18563.6677861
19540.0043184
19543.7096951
18284.6351909
19540.0975762
19536.6696941
18425.0706677
18454.6038021
19539.2093859
19540.2710735
18354.2013072
19540.4892127
19540.7935397
18421.2185583
18439.1544223
19540.9274394
19541.9437656
18332.6614318
19541.2487947
19542.1314843
18487.0987307
18486.9201479
19541.4642619
19543.7885246
18386.8994385
19541.4488344
19544.3055522
18468.5094295
18531.7812065
19542.9503948
19544.8418697
18361.5866849
19542.7527706
19540.8812132
18441.5490229
18464.3873244
19542.2317937
19543.092598
18418.7159631
19542.7560947
19543.3609367
18445.4946858
18469.7472039
19543.2191043
19544.1192734
18400.5083793
19543.4951459
19544.1163236
18499.7788308
18507.2277304
19543.9591185
19545.08463
18447.1611232
19543.3068936
19545.4191635
18484.524298
18546.4046242
19544.4171527
19545.6318342
18416.9752665
19544.6676148
19543.5478484
18466.0739428
18472.3989031
19544.515628
19544.9797318
18427.1192692
19544.9272509
19545.1806796
18433.7415173
18465.1750889
19545.2161826
19545.7009468
18416.4579089
19544.7256598
19545.1195255
18494.5164702
18506.5309705
19545.0270852
19546.0029807
18438.999869
19544.8350665
19546.0602689
18471.5735334
18516.6217514
19545.5684715
19546.6736032
18414.2149452
19546.0606801
19545.812042
18442.6067561
18438.2861938
19546.5114641
19546.2196931
18391.3197997
19546.784654
19547.0783115
18406.6436208
18452.2704994
19546.7319398
19547.886857
18402.4969997
19546.0641622
19546.2872325
18461.8118236
18478.9178825
19546.2024135
19547.2912132
18401.148759
19546.6898468
19548.0064507
18461.7466395
18478.6235875
19547.7361672
19547.9985668
18403.0583569
19548.9797864
19548.1078494
18449.8630401
18426.0845197
19549.313553
19548.5365827
18395.8543946
19550.3680396
19551.0935008
18426.9689723
18488.000746
19550.0397094
19552.1114607
18430.5895417
19549.1310796
19548.8362567
18444.9261815
18488.7695743
19548.5531492
19550.2470483
18411.1248914
19550.4801687
19552.3309826
18496.8553081
18479.3946292
19552.1360086
19551.3302895
18442.488034
19554.9845637
19552.8457249
18507.9309961
18477.4580409
19554.8990868
19553.4468936
18475.6875604
19557.0834226
19558.6646796
18499.6179311
18555.3149545
19556.6230608
19559.4040371
18521.4521766
19555.0775828
19553.9452164
18485.7452083
18532.0591421
19553.4661434
19555.8577004
18481.9421893
19557.1963703
19559.523999
18556.3017633
18525.6088298
19559.4204704
19557.5736404
18523.3705625
19562.6066801
19560.8744865
18565.6771332
18549.4724139
19562.3324467
19561.2134421
18556.7511933
19563.1667578
19561.7249501
18549.3191299
18502.9232404
19562.972888
19562.6987878
18521.3793606
19562.6680472
19561.6249239
18553.6548785
18591.0328035
19561.2565993
19563.1319069
18564.4288215
19563.3741172
19563.4374579
18527.4772694
18585.0587056
19563.0743657
19564.1615289
18541.7071125
19556.2129857
19558.8595325
18281.1900317
18455.3191273
19555.8490284
19560.7881718
18289.5713867
19550.294153
19550.5321128
18188.3356368
17831.7031243
19551.0932007
18095.2013882
19551.0369698
19556.7732468
19561.0022883
18479.8658113
18352.9181793
19561.2323315
19557.9713188
18314.4089337
19550.8561252
19552.9029457
17849.1423271
18247.1321823
19553.3294674
18115.1240011
19551.5645422
19552.828055
19557.2073623
18950.3888725
18914.9402538
19555.3955751
18635.0709288
19558.3172812
19549.0771676
19546.7012606
18798.7755488
18745.5725856
19551.8978762
19549.8321176
18527.5339398
19553.2606946
19555.4655049
18903.6726668
18862.3012224
19555.4084091
18625.3326942
19557.6661895
19549.760191
19550.1398548
18743.1460491
18818.5932755
19550.2862688
19553.8767458
18522.1861249
19544.6702194
19543.4546465
18599.9755833
18699.8908026
19544.9523394
19548.5963676
18454.1188307
19543.1389235
19543.424605
18594.2282978
18535.797472
19545.0715194
19545.1953314
18343.29266
19546.2474496
19547.2882323
18728.087
18665.8764789
19549.8028368
19549.3991798
18490.2318854
19544.7815075
19547.3929804
18554.6986825
18723.8070549
19546.0526619
19549.8749277
18371.4661938
19544.9087878
19543.1455266
18505.545233
18588.6334438
19544.4373916
19546.2230043
18493.8995745
19545.0052791
19544.8479604
18558.8268767
18547.6560463
19545.5062681
19546.1600663
18443.3241083
19546.058371
19547.1441374
18630.9015155
18595.5113734
19547.2837625
19548.1782389
18535.7435749
19546.192422
19547.7865434
18574.2371917
18671.8427329
19546.8768899
19549.0102478
18476.7465946
19546.3393658