/*--------------------------------*- C++ -*----------------------------------*\
| =========                 |                                                 |
| \\      /  F ield         | OpenFOAM: The Open Source CFD Toolbox           |
|  \\    /   O peration     | Version:  v1906                                 |
|   \\  /    A nd           | Web:      www.OpenFOAM.com                      |
|    \\/     M anipulation  |                                                 |
\*---------------------------------------------------------------------------*/
FoamFile
{
    version     2.0;
    format      ascii;
    class       volScalarField;
    location    "3.45";
    object      alpha.water;
}
// * * * * * * * * * * * * * * * * * * * * * * * * * * * * * * * * * * * * * //

dimensions      [0 0 0 0 0 0 0];


internalField   nonuniform List<scalar> 
28582
(
1.00000181202
1.00000198052
1.00000215796
1.00000231915
1.00000166089
1.00000177137
1.0000038737
1.00000458604
0.0267220411566
0.0272690505651
1.01309232442e-06
1.00000349652
0.943281844658
0.94212860624
1.00000449175
1.00000809899
0.94166060333
0.9998957279
0.999923981388
1.00000072718
1.00000139637
1.00000133921
1.00000087771
1.00000230479
1.00000249254
1.00000081757
1.00000253728
1.00000621517
1.00000430307
0.0275414198979
1.5805382061e-06
1.7387241121e-06
1.00000746675
1.00000659394
0.944959018094
0.943686559764
0.999950554686
1.0000046781
1.00000893641
1.00001004618
0.999897972929
0.938681778751
0.999915575844
0.999946032149
0.0272823913409
0.0268236731678
5.83605278929e-05
7.41799318605e-05
0.0273255782367
0.000105640996848
0.999936644615
0.999900517091
0.943006753839
0.944496947848
0.999924624693
0.943504321393
0.999928554746
0.99988789372
0.999891475333
0.942542688976
0.941225843947
0.999873815161
0.942308484948
0.999903819003
0.999869068574
0.999891188822
0.941147205054
0.941010535501
0.999851066773
0.941038129814
0.999897937252
0.999911626363
0.941006874579
0.941009965752
0.999878518099
0.941167397114
0.941060191574
0.999899493829
0.999960888537
0.94219609034
0.943888440731
0.999914325423
0.943931045143
0.999932019304
0.942021695582
0.0263553864131
5.95628296384e-05
0.0253244082204
0.0258536307009
3.47327223475e-05
4.06628330314e-05
0.0270984028653
8.32028566076e-05
6.4682027552e-05
0.0280123444585
0.000138490964298
0.0284171263016
9.20889490041e-05
0.999951716716
0.99995750251
0.945003327111
0.943909375321
0.99996169199
0.999936588091
0.943893224233
0.999948733195
0.999972368393
0.944643167081
0.943537825152
0.999972848683
0.999950739815
0.943808689776
0.943732340788
0.943026575367
0.999952563357
0.999988588718
0.943297420293
0.999976152678
0.943491785312
0.999913032274
0.940707977034
0.94092703106
0.999896922634
0.940348114457
0.999906258446
0.940127543594
0.999893062313
0.999896253725
0.939756540494
0.93719048782
0.999894646357
0.99987600125
0.938868031477
0.999958046942
0.999958896513
0.941795034084
0.943116992861
0.941627831831
0.999906411039
0.9406275846
0.939494802783
0.937197900539
0.999924764418
0.9998895305
0.93692078018
0.999884849932
0.938797061776
1.00000315305
1.00000449936
0.0300939085429
5.32168318476e-06
1.00000645167
0.942675626313
1.00001067981
1.00000996663
0.936868630302
0.935143220148
0.926504438469
1.0000095612
1.00000846373
0.921385232204
0.903335675594
0.0268204590071
0.0297090194434
0.032207656477
0.00017158905588
0.000208839446997
0.000282523304164
0.0347961222623
0.0372766939707
0.999915555999
0.999946804928
0.942729342883
0.942842685933
0.999939829356
0.942299114498
0.999943899118
0.999840979765
0.999886532513
0.934254527717
0.935304132553
0.999862251343
0.999855211953
0.932878939358
0.999854603346
0.999908372443
0.934852550592
0.933062211384
0.999880162592
0.93248031493
0.999889514558
0.99982861792
0.99980719863
0.925550752191
0.93024946655
0.999789551417
0.929263127338
0.999854508775
0.999655760222
0.999750963241
0.920848559543
0.915811733295
0.999730600409
0.914804169221
0.99967402481
0.999582527249
0.99948911048
0.903235448141
0.910149168593
0.99950266826
0.908630772547
0.999580559846
1.0000123701
1.00000528231
1.00000433246
1.00000488116
0.017202617105
0.0209140825238
0.0161359490885
0.0187370644317
0.019067609076
4.06347244749e-06
1.41566909117e-05
2.40249936182e-06
7.83622059166e-06
9.9574750081e-07
7.75207482249e-06
1.00000336459
1.00000461043
0.963288289295
0.96574714514
1.0000065869
0.966858176091
1.00000637417
1.0000073445
0.966231676326
0.965480906763
1.00001267101
1.00001209986
1.00001316496
0.967351800382
0.962022992922
0.966118449602
0.962551144264
1.00001270155
1.00001047844
0.957717970072
0.945515352054
0.959906153913
0.950142402092
1.00000601227
1.000008014
0.96524685585
0.962546248509
0.960646927416
1.00000339229
1.00000705005
1.00000636963
0.960185946377
0.950850255127
0.958976305039
0.950717445071
0.957627350018
0.950275275827
0.0183023192292
0.0177546268463
0.0181504662413
5.36342009433e-05
0.000114122746656
6.36176704951e-05
0.000115844439907
0.000198759724171
0.000222544289011
0.000189482900943
0.000191921267585
0.0168090594267
0.0161087871802
0.0187889602193
0.0163963305143
0.0176185498959
5.24538864752e-05
0.000100507161974
3.25337135039e-05
8.16145299248e-05
0.0222698117192
0.0195694955932
0.0209582907101
0.000159983620489
0.000151156086005
0.000137391913122
0.000128307391594
0.0170171510399
0.0170421057348
1.60549211487e-05
6.05643116691e-05
4.93274095146e-05
0.0201723267703
0.0185827114254
0.0199435520378
0.000118857426108
0.000125745422873
9.72691669738e-05
0.000127099385387
0.999975292538
0.999988331492
0.961917055813
0.963573139394
0.999996593115
0.962190478141
0.999990054163
0.999971725463
1
0.964409280136
0.96371357347
0.999987257042
0.999992397539
0.962995412526
0.999992522228
1
0.966193131935
0.966036923971
0.999992326999
0.999986237429
0.966257881745
0.99999777031
0.999999840946
0.964420642774
0.965999219233
1.00000159646
0.999999953144
0.964973039631
1.0000036629
1.00001295923
0.965780380341
0.964792850411
1.00001285331
1.00000874303
0.964936482578
1
0.999998381327
0.966379938775
0.967137137128
0.999976859725
1
0.966986114953
0.999993056655
0.999969437802
0.964048084202
0.960778008874
0.999973235538
0.9999341956
0.965514722023
1
1.0000177585
0.967131708835
0.966456767418
1.00002255368
1
0.967146773574
0.999997161909
0.999990187846
0.961319469683
0.96436928509
0.999954026118
1
0.965906305076
0.999988550514
0.999941156969
0.949032414637
0.954480314932
0.999955635144
0.999946697993
0.95314556284
0.999976830575
0.999917291246
0.944741481394
0.943381246518
0.999960488021
0.949933517533
0.999903150868
0.999986144264
0.99996182018
0.955423127715
0.952939125011
0.999974200485
0.999986379977
0.954300225761
0.999979700702
0.99993814178
0.945561061127
0.948912607594
0.999974298227
0.951665330114
0.999905026684
1.00000454203
1.00001143281
0.96610741936
0.964525416206
1
1.00001396931
0.965235769295
1
0.99998830026
0.964352796057
0.961959826595
1
0.999998529695
0.964894823341
1
0.999994440533
0.961591177889
0.962063854824
0.999999852982
1
0.964147500841
0.999971750328
0.999940889263
0.953693415511
0.956794525201
0.999974808026
0.9999983811
0.955539882706
0.999977634545
0.999922646559
0.949754494762
0.949357408883
0.999988523869
0.953814302583
0.999971679418
0.999985858688
0.999978033355
0.956750456693
0.954049422275
1
0.999992325506
0.955296202728
0.999987261208
0.999954081954
0.949720983915
0.950009723489
0.999989662541
0.953944138012
0.99997978773
0.999953461092
0.999943960704
0.953191557803
0.951999552441
0.999965198746
0.999974745439
0.951881661015
0.999936594222
0.949633651849
0.99997115292
1.00000141681
1.00000164647
1.00000179618
1.00000102431
1.00000041942
0.999999711152
1.00000145993
1.00000171679
1.00000188324
1.00000229417
1.0000017549
1.00000172389
0.999954421407
0.999983186027
0.999940942868
0.999970276295
0.999994411481
0.99999813326
0.999998491359
0.999998611727
1
1.00000114189
0.999992590193
0.999982953329
0.999988334324
0.99999656059
0.999998897037
0.999999752398
0.999997381141
0.999998102863
0.999999242113
0.999999744485
0.999999879991
0.999999955727
1.00000003576
1.00000061532
0.999999988079
1.00000060659
1.00000078116
1.00000079675
1.00000109517
1.00000099427
1.00000088434
1.00000117677
1.0000014124
1.00000121654
1.00000104714
1.00000169476
0.999899440667
0.999639122113
0.999953315618
0.99999484039
0.999999226671
1.00000007113
1.0000003924
1.00000145897
0.999860027053
0.99987414054
0.999970147522
0.999995107058
0.999999146959
0.999999722183
1.00000010763
1.00000126867
0.999977645458
0.999987677724
0.999997994213
0.999999874101
1.00000030175
1.00000051632
1.00000071422
1.00000163521
1.00000064446
1.00000087003
1.00000083889
1.00000083867
1.0000007894
1.00000072496
1.00000080948
1.00000159737
1.00000192878
1.0000018374
1.0000018742
1.0000029831
0.999725961042
0.999637012409
0.999992965815
0.999999731939
1.0000021262
1.00000293161
1.00000267385
1.00000303663
0.999935195083
0.999783336162
0.999996973885
1.00000058653
1.00000159589
1.00000177771
1.00000154559
1.00000221593
0.999992398426
0.999994521925
0.999998939425
1.00000022819
1.00000082581
1.0000012172
1.00000166111
1.00000259446
0.999999759605
1.00000072705
1.00000084814
1.000000706
1.00000065103
1.00000071086
1.00000100972
1.00000158057
1.00000262784
1.0000010698
1.00000137474
1.00000170525
1.00000197222
1.00000196429
1.00000243043
1.00000311701
1.00000345216
1.00000398957
1.00000489143
0.999842417781
0.999898397168
0.999999054036
1.00000296732
1.00001025626
1.00001598712
1.00001317747
1.0000119627
1.00000454493
1.00000548654
1.00000413986
1.00000528483
1.00000843252
1.0000103459
1.00001058563
1.00000792064
1.00001049553
1.00000264177
1.0000026592
1.00000371537
1.00000499032
1.00000550055
1.00000560474
1.0000052613
1.00000524257
1.00000006933
1.0000014063
1.00000636283
1.00000771714
1.00000678342
1.00000387513
1.00000092021
1.00000083756
1.00000191895
0.999999160643
1.00000085139
1.00000711414
1.00000491199
1.00000405841
1.00000365427
1.00000294505
0.999999415203
1.00000244316
1.00000306363
1.00000050163
1.00000499654
0.0272079629176
0.0279853228283
0.027647190663
0.02653596723
0.0276208337249
0.0316267356221
0.0386361468687
0.043325337998
0.022500158129
0.0226698634336
0.0249325410619
0.0269346769038
0.0267714524249
0.0258399902996
0.0265789304294
0.0311619756818
0.0383656539738
0.0431154501977
0.0207584189263
0.0218815056532
0.0233391031225
0.0250902845588
0.0258582632547
0.026325856825
0.0277977151276
0.0321552390559
0.0390367399495
0.0440188786131
0.023043589852
0.0234293509484
0.0250394279693
0.0267235402087
0.0278038805755
0.0292458509543
0.0341755334625
0.0402911235788
0.0449438885568
0.0265596141942
0.0265851493146
0.0269363334026
0.0293092183347
0.034932844022
0.0403879739263
0.0436593520019
0.0348865845593
0.0396530481217
0.0427726691077
4.13179052593e-06
8.54973537473e-08
1.0932856015e-08
8.44814383473e-09
4.95784934732e-30
7.02706939416e-09
1.5085246701e-07
3.70600990005e-06
3.37896122297e-06
7.37214804903e-05
1.23635967959e-06
3.39325262333e-09
3.12477272284e-10
8.74712529906e-09
2.62851068835e-25
2.03319777273e-08
1.85691321734e-07
2.63274850163e-06
4.75061856021e-06
7.98509421741e-05
3.73597164853e-06
2.65188983089e-07
8.35322447874e-09
2.26271653456e-07
8.38506170685e-07
9.37342312276e-07
1.14705860721e-06
5.20674010942e-06
2.80743793888e-06
5.9159270593e-05
8.17669085706e-07
3.17716547614e-07
5.7684774945e-07
1.99993558797e-06
1.2824135439e-06
2.29864802272e-06
8.51992869094e-06
3.46567473193e-06
5.43541309729e-05
8.50841762045e-07
2.14290919447e-07
3.47447480904e-07
3.89865441081e-06
6.73955062959e-06
1.02963410977e-05
7.06003997679e-05
4.73020234722e-06
1.04381523983e-05
7.94199104826e-05
0.999954997354
0.999993940197
0.999996886269
0.999874991346
0.999911070302
0.999874819031
0.999898221217
0.999995631789
0.999998704035
1
0.999931963862
0.999879069349
0.999948405706
0.999956078418
1.00000137456
0.999999021722
1.00000089282
0.999989658891
0.999993081906
0.999992535995
0.999996549639
1
1.0000006636
1
0.999995872884
0.999995068696
0.999999086906
0.999998974022
0.999846777106
0.999771573307
0.999616120744
0.999823739076
0.999513302122
0.999567987067
0.999513071327
0.999766410968
0.999678422658
0.999822662946
0.999606847876
0.999860205978
0.999532425326
0.999815077089
0.999839032528
0.999991110548
0.999989110739
0.999922093711
0.999635122895
0.999963002555
0.999927650749
0.999907497959
0.999987042022
0.999989023136
0.999610486497
0.999831771379
0.999930397354
0.999956493296
0.999513071338
0.999817582361
0.999574093339
0.999615113443
0.99960782839
0.999779357069
0.999774555827
0.999903402939
0.999718099435
0.999912085273
0.999839159945
0.999977137404
0.999872116146
0.999973987717
0.999760641534
0.999975498265
0.999951001465
0.999941830326
0.9999309107
1.00000269762
1.00000161827
0.999921069531
0.999951105479
0.999973938142
0.999950415942
0.999986679973
0.999999764007
0.999999345612
0.999980719879
0.999992329777
0.926125296555
0.931874858844
0.999812700503
0.99994759911
0.999945505085
0.926363340587
0.929891927416
0.931367084898
0.932623908452
0.999982564082
0.999963211633
0.999991033589
0.930953330288
0.933609260673
0.933150232376
0.93556011541
1.0000002436
0.999999879879
1.00000302369
0.934747263575
0.938291272488
0.936595284172
0.939750776746
1.0000064302
1.00000827596
1.00001124531
0.938234250923
0.936686007747
0.940483761131
0.94061641944
1.00001269686
1.00001203612
1.00001189263
0.936662644721
0.937507605061
0.940695214831
0.939700730112
1.00001631709
1.00001091814
1.0000118354
0.936226109265
0.917191692414
0.937445218949
0.917601019939
1.00001123864
1.00001025626
1.00001024323
0.90812944779
0.887792568064
0.909630174466
0.890980071227
1.00001369768
1.00001504865
1.0000205732
0.889200899621
0.882711731664
0.891828426348
0.879505043426
1.00001097316
1.00000766028
0.941174846514
0.938067789534
0.948296372414
0.945560802363
1.00000747538
1.00000839215
1.0000042117
0.935897080151
0.934336498391
0.943926569334
0.941600857758
1.00000531563
1.00000315447
1.00000191776
0.933595635873
0.934178838598
0.940773990373
0.939686492912
1.0000039029
1.00000106336
1.00000149664
0.934490384817
0.936455870718
0.939699545891
0.940448048115
1.00000743331
1.00000187061
1.00000341324
0.937347105964
0.940719715318
0.94096874871
0.942944383915
1.0000107546
1.00000569154
1.00000712369
0.941364050143
0.94206618293
0.942800975803
0.941156019839
1.00001089703
1.00000798923
1.00000826091
0.942145919788
0.940205267261
0.941113694852
0.939514118302
1.0000079389
1.000007879
1.00000546732
0.937452296451
0.917328687901
0.936658770135
0.915887900133
1.0000087102
1.00000377606
1.00000251863
0.909572803631
0.891788904738
0.907868074322
0.889583972163
1.00001500904
1.00000773652
1.0000090973
0.892390239641
0.877926500207
0.890482456646
0.876635627411
1.0000043185
1.00000613327
1.00000560442
0.949341840584
0.946876272568
0.950243578065
0.94860753471
1.00000382966
1.00000541136
1.00000556846
0.945545346772
0.943544501534
0.94830126123
0.947916981901
1.00000483419
1.000006795
1.00000792823
0.942863195269
0.941671667361
0.947610431236
0.946134243416
1.00000565286
1.0000080906
1.00000774986
0.941594858628
0.941986885076
0.945207198897
0.944093137133
1.00000606731
1.00000690143
1.00000626436
0.942353935162
0.942663849732
0.943154044304
0.937791635115
1.00000549343
1.00000400276
1.00000335488
0.942154761305
0.939513104458
0.936378689605
0.936142252941
1.00000564967
1.00000436319
1.0000051958
0.939544261504
0.938038654521
0.936430000116
0.935108358812
1.00000231465
1.00000454369
1.00000345667
0.935242212387
0.914814778563
0.932386589719
0.910840608463
1
1
0.999999613874
0.906601144527
0.88805384392
0.901413662642
0.881819097292
1.00000551508
1.00000578613
1.0000085928
0.889019859865
0.877485598337
0.883590974881
0.877817763869
0.94986001239
0.948015652128
1.00000764401
1.00000641763
0.94785135875
0.947823302689
0.945851719074
1.00000813175
1.00000758337
1.00000925125
0.947834652238
0.946467411825
0.94616273934
0.94490101897
1.0000054629
1.00000820328
1.00000732612
0.945715976755
0.943957924061
0.944287822149
0.943121967513
1.00000127044
1.00000535797
1.00000399276
0.94270305686
0.937288634997
0.942827747223
0.941182464431
1.00000108821
1.00000352415
1.00000244001
0.935771193298
0.935298913393
0.939811138153
0.938138312201
1.00000143264
1.00000239407
1.00000323058
0.935437677245
0.933738173768
0.93790026464
0.933833353168
0.999998889404
1.00000141563
0.999999797518
0.930744166987
0.908538792151
0.928908582468
0.90354596469
0.999999149918
0.999998941515
0.99999854087
0.899216287547
0.881121582866
0.895749533718
0.884541689833
1.00000652474
1.00000581761
1.00000999741
0.882883023193
0.878909275146
0.88624815108
0.882686266407
1.00000648418
1.00000543662
0.94293601389
0.942767305897
0.942933781877
1.00000488818
1.00000450515
1.00000480046
0.943192076172
0.94351873504
0.942668598769
0.942295188996
1.00000441181
1.00000525025
1.00000627076
0.942792683576
0.940832126361
0.941948995054
0.940429550322
1.00000319236
1.0000061838
1.00000597292
0.9399332455
0.933078586041
0.938767908057
0.927374187631
0.999998954811
1.00000174691
0.999999215121
0.927586043723
0.902661613127
0.921605033243
0.902495608174
1.00000066431
1.0000008566
1.00000198059
0.895991817312
0.887759922691
0.898460291464
0.894789016796
1.00000750532
1.00000788335
1.00000950839
0.889460650515
0.882323785016
0.896294247899
0.885034580769
1.00000352947
0.925843113355
1.0000017484
0.920465116052
0.903202488587
1.0000044795
0.899138495302
0.895827404814
1.00000665248
0.896992055602
0.885473475404
0.000172816922019
3.46024803133e-05
0.000127160848862
1.7905130029e-05
0.0257437231938
0.0249162399377
8.89726493717e-07
1.79021615032e-07
3.34142782493e-07
1.91070821523e-07
0.027773416115
0.02623489319
0.027051977317
6.51339998291e-07
1.02293999757e-06
6.96140996076e-07
2.66545964449e-06
0.0278713316497
0.0275867704024
0.0275309755388
4.75790810608e-07
2.68255805762e-07
3.58174828983e-06
2.73393891275e-06
0.0268670357139
0.027220331248
0.0266072782149
1.32730266314e-06
8.91390795033e-06
2.86972189117e-06
2.7903142196e-06
0.0268292988804
0.0261325896297
0.0262892400229
1.77030982834e-05
1.2362366653e-05
2.8730473404e-06
1.8323441901e-06
0.0290797234499
0.0269391723003
0.028506867755
1.53404202094e-05
6.05988191614e-05
3.36149599647e-06
4.36525345144e-05
0.0348592185665
0.0312300137273
0.0346783165816
0.000131550538878
0.000243303102574
0.000118400252457
0.000244441097719
0.0422167567818
0.0384261736268
0.0419953237757
0.000338649221846
0.00039597977833
0.000348127880695
0.000402538406604
0.0430343806172
0.0430930887109
0.0428607763305
0.000721222037574
0.00122021098128
0.000720041188718
0.00122396257
0.0222146482878
0.0212263162325
0.0214483148736
8.19332198517e-05
1.40430364179e-05
6.50597105205e-05
1.47423354227e-05
0.0236462634685
0.0220195297597
0.0228783248405
8.4086761842e-07
3.54528283621e-07
3.01987839056e-06
3.29212879436e-07
0.0261634068944
0.0240274933264
0.0252127876198
5.54959412423e-07
1.66544644896e-06
4.20830761848e-07
4.48334436904e-07
0.0270229876876
0.0259680475217
0.026298597718
2.78345654684e-06
3.33423734336e-06
2.30666165584e-06
4.0215335992e-06
0.0262092616184
0.0261991078467
0.0258416137882
3.61557239579e-06
3.66349679973e-06
8.09372593163e-06
6.33308610087e-06
0.0259321882727
0.02576895902
0.0260486935416
1.95820698155e-06
1.16988840018e-06
5.98552403437e-06
2.23307536098e-06
0.0283184052371
0.0268626332394
0.0286316233345
2.57126508344e-06
4.41157653316e-05
1.30050408744e-05
5.48140023017e-05
0.0346665082464
0.0314195862051
0.0348794003716
0.000118680800422
0.000248193562785
0.000137876200231
0.000275674687843
0.0419140747506
0.0385304439428
0.0420947126519
0.000371078941983
0.000436549179578
0.000391409289105
0.000458144397411
0.0429519019044
0.0433325676337
0.0432656623045
0.000762160790929
0.00124696060352
0.000803637562815
0.00125914778903
0.0212795113097
0.021020466509
0.0215825740516
8.60087212809e-05
3.51521669875e-05
0.000116366646278
7.86835542134e-05
0.0225220496075
0.0220960151456
0.0225220462304
8.62367406418e-06
9.13892264018e-07
3.61834808685e-05
1.67283638077e-05
0.0243259176008
0.0230777872878
0.0238288523565
3.06825326107e-08
3.11081854422e-08
7.77139375178e-06
4.2837979469e-07
0.0256869325283
0.0247973772945
0.0255365309782
1.84982210657e-07
3.19900075601e-06
2.73441800221e-07
3.72696750929e-05
0.0259703383271
0.02623065977
0.0267739637077
1.44175797197e-05
3.32201684408e-05
0.000102912813468
0.00014803948142
0.0268650906441
0.0272188444116
0.027700372268
3.60655650808e-05
3.66686052941e-05
0.000144248043431
0.00011585243742
0.0295115984998
0.0285553166684
0.0303458830741
4.51875547333e-05
8.76368800751e-05
9.97077611035e-05
0.000130647547374
0.035406106162
0.0330913844053
0.0361717635426
0.000168798592707
0.000304940561647
0.000208495957442
0.000329234779166
0.0426218465064
0.039683608924
0.0432381485831
0.000382182780087
0.000433197229701
0.000403513399296
0.000459418523802
0.0440133776896
0.0445640229789
0.0443656863026
0.000720424233046
0.0010760771863
0.000738054723887
0.00107876451201
0.023232311284
0.0242943173384
6.2623794121e-05
3.96747979388e-05
4.89393443241e-05
0.0240757812391
0.0243256123208
0.0247767777678
1.65524355205e-05
1.24976662345e-06
2.07852989699e-05
2.33151786322e-05
0.0257646089988
0.0256179652362
0.0262882036399
2.04516131544e-05
7.15386811882e-05
3.94088035257e-05
4.90962383811e-05
0.0273873432192
0.0267599925579
0.0272342728972
0.000131356080608
0.000153305676107
7.59974671013e-05
8.65409835298e-05
0.0282917923718
0.0276435154946
0.028178454492
0.000135673279633
0.000108443374268
8.12776105948e-05
7.80234183474e-05
0.0313009997028
0.0293195688262
0.0317508860806
9.74730054594e-05
0.000145864180125
0.000101497535007
0.000169369451041
0.0370137852533
0.0347575025376
0.0375632200141
0.00023208964251
0.000354660239249
0.000268721828626
0.000393296110108
0.0435651214347
0.0405561561395
0.0433476357089
0.000425774198576
0.000477411907625
0.000444620384607
0.000474553540636
0.0443689181838
0.0446135894321
0.0439208353156
0.000725547615956
0.00102740867075
0.000701587010034
0.00100014652228
0.0268223078038
0.026993877155
3.86010355441e-05
2.25092178918e-05
6.84956625671e-05
6.42629602543e-05
0.0266446580232
0.0269205822944
0.0268496628593
4.25218596815e-06
8.37104290301e-06
4.47318471615e-05
3.37121941819e-05
0.0277006555482
0.0270867901205
0.0279420259177
1.58971190415e-05
3.93392862089e-05
3.74498517102e-05
5.96862955962e-05
0.0320611050874
0.0297653512592
0.032340016462
9.41315548e-05
0.000190662159279
0.000123058934019
0.000249692193953
0.0377603492135
0.034872129191
0.0375398360091
0.000283372250545
0.000389932043441
0.000332735596211
0.000408163827457
0.0426233345468
0.0399553872157
0.0419478351635
0.000483147062617
0.000527247128736
0.00047774522834
0.000512468999074
0.0432247156482
0.0428766485902
0.0428931257522
0.000763425431558
0.00108060357788
0.000740962203516
0.00105641796024
0.0324207284906
0.000281739825432
0.0374286184728
0.000340367066495
0.000386723538648
0.000326135663242
0.000363702951657
0.0415063458269
0.000456588858244
0.000498731822614
0.000418022375241
0.000449481536332
0.042894249511
0.000765576120443
0.0011602131991
0.000696419905443
0.00115839927604
0.999991824083
0.999924348806
0.925971607371
0.927601889316
0.999982232941
0.926935450583
0.999968037445
1.00001089057
0.999947871033
0.929167367027
0.93237273553
1.00000096584
0.999980893662
0.92859155872
0.999938316219
0.999911663279
0.927684071304
0.92852969353
0.999948008284
0.928830919073
0.999908046092
0.999930861849
0.99991207671
0.92898197795
0.930271149589
0.999930805477
0.929350176946
0.999908292473
0.999965075501
0.999950538283
0.930046995431
0.931693074593
0.999975967847
0.999954602512
0.930367429884
0.999958882989
0.999956916059
0.931493933342
0.932252045355
0.999956751631
0.999958884009
0.930739044597
0.999935399597
0.999924069069
0.93204970981
0.930998376708
0.999930318694
0.931682054096
0.999933122427
0.999943212281
0.999937920611
0.932808042218
0.933748412396
0.999949414004
0.932656552625
0.999937411037
0.999949911134
0.999957549596
0.932085101457
0.933987384088
0.999950554631
0.999948653655
0.932634913782
0.999946490753
0.999932863441
0.934561239429
0.934765404138
0.999945682001
0.999938966977
0.93346874718
0.999930703776
0.999934562524
0.9360415278
0.934749403012
0.999941048011
0.935971288762
0.999912684389
0.999890011805
0.999907028839
0.937308627773
0.939652831321
0.999857274729
0.937660180346
0.999896958686
0.999930487406
0.999934118592
0.935596839627
0.937859033208
0.999941211225
0.999934884547
0.936703030278
0.999912777515
0.999955016435
0.93959508514
0.938934190321
0.999917070926
0.999940836848
0.938000585209
0.999843745613
0.999902879334
0.938094603159
0.940313177864
0.99985865514
0.940309586175
0.999921951245
0.999817828266
0.999895755885
0.937786621752
0.938857931296
0.999790508564
0.940027276147
0.999926206491
0.999920682275
0.999965347584
0.940623696076
0.940918607705
0.999921373475
0.999974548329
0.940898375371
0.999915243768
0.999963479223
0.939987974972
0.940872381932
0.999900238796
0.999971876725
0.940721499445
0.999779500697
0.999859904716
0.936690942186
0.938574883123
0.999774780511
0.938229105609
0.999851287343
0.999818813976
0.999889865149
0.937163362246
0.93801798328
0.9998702687
0.938142221557
0.999854058061
0.999886784444
0.99995314811
0.939659002725
0.940567351339
0.999890880903
0.999939587497
0.93933321848
0.999891836161
0.999918269665
0.938611131138
0.940387512143
0.99991594366
0.999921396641
0.938893559609
0.999885212677
0.999920141604
0.932832337804
0.936544231711
0.999895264223
0.933460680195
0.999887219802
0.99983947484
0.99975852627
0.925791409903
0.918203507284
0.999735715622
0.927130930374
0.999828802966
0.999900605413
0.999911341172
0.936932934094
0.933032977315
0.999917722263
0.999880628323
0.933390333351
0.999864793124
0.999738677128
0.918236227148
0.925797551353
0.999769739395
0.999825461528
0.926941660079
0.999526498958
0.999665793074
0.899541432907
0.908744612316
0.999627435863
0.900533407333
0.999540767368
0.99943711497
0.999386099348
0.892798265784
0.889262136114
0.999390075284
0.894567716887
0.999439125075
0.999566398784
0.999643379702
0.909076730657
0.902273505988
0.999663225292
0.999548327092
0.901528430699
0.999490029019
0.999424704912
0.890499407289
0.896068827713
0.99941764635
0.999472453262
0.895818624623
0.99930784162
0.999376888627
0.888830639169
0.89014505322
0.999364441861
0.889822918423
0.999314444757
0.999173474189
0.999254620736
0.877969959208
0.88267018495
0.87969852648
0.999261466486
0.999169659519
0.999320101613
0.999407818028
0.891218226054
0.891569095448
0.999377513952
0.999344855495
0.890658048403
0.999206341506
0.999336280276
0.880296443196
0.882190311237
0.99921850215
0.88082880729
0.999294799837
0.999960554149
0.999899347263
0.93681459987
0.942574768612
0.999933657543
0.944035985971
0.999906896323
0.999966076861
0.999936156074
0.937007866913
0.939297570066
0.999941740916
0.999950228008
0.941535979481
0.999964286582
0.999941696429
0.944783729124
0.946102844625
0.999989484014
0.946307061478
0.999922302361
0.99997539916
0.999945154909
0.942463070566
0.946224737384
0.999963644497
0.999981087896
0.94418858293
0.999988325214
0.999951001272
0.934900911448
0.939718486862
0.999980779178
0.999977697643
0.939003713693
0.99996919137
0.999977804163
0.934938492544
0.936725953728
0.999984622312
0.999966833438
0.93714375089
0.999978657151
0.999958190377
0.942410028323
0.943167461819
0.999974783726
0.999970750328
0.941369000759
0.999961470074
0.999938933892
0.939210078509
0.942643052374
0.999952145589
0.999952316126
0.939671148551
0.999974976356
0.999972364416
0.933730924453
0.936548340593
0.999971498284
0.999969813506
0.936180864327
0.999968040832
0.99998235685
0.933964285087
0.936173899773
0.999982942405
0.999968055596
0.936097167962
0.999958104671
0.999944752715
0.938823970878
0.940434350563
0.999953341476
0.999946680533
0.938226933213
0.999964795396
0.999935510918
0.938000334751
0.939949772092
0.999964447475
0.999940184832
0.937959039189
0.999955237127
0.999977172352
0.935134679653
0.936276716795
0.999960389815
0.999962592081
0.936466614655
0.999951482431
0.999924743572
0.935796585618
0.937678815211
0.999940973498
0.99995217113
0.936899465697
0.999952708701
0.999936864824
0.938014493356
0.939859065032
0.999958305688
0.999936547155
0.938120940329
0.999946851551
0.999934745336
0.939047058249
0.940102120487
0.999938737835
0.999933620333
0.938406842141
0.999950318941
0.999927373777
0.938589194711
0.93853190657
0.999929684058
0.999949805794
0.939343492577
0.999946889063
0.999936572426
0.939792443932
0.941373441205
0.999929781208
0.999942428549
0.940244243426
0.999929283965
0.99994123283
0.939906358224
0.941772452009
0.999928810872
0.999959356725
0.940786369871
0.999926260652
0.999995344602
0.942223880601
0.942560385029
0.99993819046
0.999982318757
0.941500813609
0.999946344525
0.999948828945
0.941824021177
0.942220175747
0.999960391833
0.999949859442
0.942385617514
0.999947332606
0.999946821567
0.942021072552
0.942221180089
0.99995815322
0.999951666281
0.942380860944
0.9999523609
0.999992263871
0.942825780955
0.942259212101
0.999952453365
0.999991424649
0.942929442565
0.999954333846
0.999969179694
0.942476219324
0.94176160515
0.999946866412
0.999980582654
0.942786457306
0.999938440626
0.99993014483
0.941792296631
0.942097439137
0.99992450876
0.999949796956
0.941758073042
0.999934413958
0.999915873947
0.941274401243
0.940516557304
0.999914739748
0.999929588582
0.941427334314
0.999939620683
0.999954752002
0.942277699038
0.940966981602
0.999938800783
0.999951730138
0.941889474401
0.999932443085
0.999946930849
0.940317066693
0.940617361232
0.99992524154
0.99995366767
0.941410247311
0.999878609282
0.99990764259
0.932777797149
0.937816017931
0.999876602549
0.999911523136
0.932825064251
0.999823980952
0.999737111321
0.925435695123
0.916949282754
0.999824912032
0.999723596871
0.925521251716
0.999863445657
0.999927484501
0.937420121592
0.931628641269
0.999907059581
0.999881438069
0.932446665901
0.999797912569
0.999714881989
0.916586173858
0.924188514713
0.999699872529
0.999812255812
0.925150105541
0.999553418947
0.999641453859