/*--------------------------------*- C++ -*----------------------------------*\
| =========                 |                                                 |
| \\      /  F ield         | OpenFOAM: The Open Source CFD Toolbox           |
|  \\    /   O peration     | Version:  v1906                                 |
|   \\  /    A nd           | Web:      www.OpenFOAM.com                      |
|    \\/     M anipulation  |                                                 |
\*---------------------------------------------------------------------------*/
FoamFile
{
    version     2.0;
    format      ascii;
    class       volScalarField;
    location    "3.45";
    object      p;
}
// * * * * * * * * * * * * * * * * * * * * * * * * * * * * * * * * * * * * * //

dimensions      [1 -1 -2 0 0 0 0];


internalField   nonuniform List<scalar> 
28582
(
17113.3854408
17113.1406705
12216.0853605
12215.8377835
7319.73399866
7319.4324702
3647.6549371
3647.54045249
11.9886154792
12.6441970292
-27.002124828
3647.62976482
623.311022404
623.777345384
3647.35183006
3647.776013
623.606013296
1811.20763894
1811.46480066
17112.363257
17112.4768936
17111.2298179
12214.7034922
12214.9725493
12213.4516169
7318.21769019
7318.25402045
3645.67018901
3646.90982628
13.015689279
-27.0585070208
-26.9814777674
3646.05444907
3646.81007831
620.048153115
621.439771988
1811.56321811
3646.21546722
3647.1088891
3646.08774161
1811.07560896
625.438544581
1811.18291776
1810.10465092
12.6113955246
12.1007845267
-23.233554977
-23.2327309829
12.6855838917
-23.2526523867
1812.05118683
1812.22289652
623.578308421
623.593531243
1812.3849633
623.669400001
1812.05114734
1812.03415714
1811.8181828
623.863584783
623.781822097
1811.76653731
623.791441299
1811.98275708
1811.4510634
1811.61491181
623.45352508
623.609093139
1811.57451631
623.480262172
1811.4196021
1811.21013834
623.366530989
623.380871637
1811.33031528
623.36178496
623.378029527
1811.30775798
1811.9207709
623.436102119
623.292338291
1811.5965279
623.228269359
1812.13198341
623.410159546
11.3804790908
-23.2689386153
10.1913445724
10.8215881359
-23.2621093487
-23.2572744108
12.5250378356
-23.2013797626
-23.2087680783
13.7578327661
-23.166746867
14.1904509582
-23.1777716538
1810.49524016
1809.93718723
620.55867803
620.559468588
1810.35511728
1810.13323663
620.972532479
1810.80742839
1810.77131181
621.005328975
622.007390171
1810.61346036
1811.11672546
621.455783338
622.344773221
622.691625832
1811.70887516
1811.16154852
622.415504232
1811.42271701
621.94864031
1811.14292356
623.512252879
623.615410089
1810.80982073
623.993949549
1811.0996037
623.839234207
1810.41636252
1810.7708038
624.655727245
624.903287774
1810.97060314
1810.05750123
624.181586337
1810.83451411
1811.48912549
623.568316014
623.283211279
623.230073337
1810.70033702
623.573304895
623.251339693
623.630383524
1809.52031946
1810.13620431
624.266286374
1809.67311755
623.697464476
7315.84284864
3644.90019385
16.4486419067
-26.9591955018
3646.9673978
622.975146321
3644.73066824
3642.47721833
626.498893567
624.599233273
628.344755102
3639.2651147
3635.91910075
628.614889341
627.15031114
11.9419812302
16.0216163181
19.1825614506
-23.1288134742
-23.1187978798
-23.067322965
22.4603583144
25.5801479074
1811.59644742
1811.74373156
622.833196008
623.354684269
1811.53921364
623.10455932
1811.84808729
1808.69688512
1810.32480499
627.522428113
625.864687205
1809.3767897
1809.56660251
626.838898689
1808.46348716
1809.13640475
625.168663638
625.825688163
1809.20289513
626.287954665
1808.63191586
1807.25012186
1806.05771048
628.096644107
627.308410268
1805.52788781
627.409965583
1807.69139786
1800.29068016
1803.57922369
628.460742353
628.455792339
1803.22107925
628.252126624
1800.52187542
1797.30871577
1794.32198467
627.54247107
627.980043692
1794.69911616
627.73731034
1797.38086408
3652.71712814
3648.2550059
3647.0252247
3644.84576537
0.561304874826
4.9621083036
-0.924158036016
2.43447743933
2.76270518299
-27.0447197353
-27.188502801
-26.9541517393
-27.0868164017
-26.9462210843
-27.0614246634
3653.40929127
3652.70475135
615.064666647
614.304071425
3655.14138192
615.649467651
3651.18734298
3649.41162557
613.509164159
610.738556197
3652.57549004
3650.32289204
3650.05842189
614.750560177
616.511270472
611.608023216
613.212984061
3648.24755907
3645.63097175
616.908001315
613.609706835
614.249480379
612.650839991
3648.08808823
3646.62235726
610.756943171
612.46350977
611.585963337
3645.40069107
3645.95981843
3644.88952739
613.318701053
612.338049291
612.252334353
612.235197195
612.063068762
612.442769482
1.43735708921
0.856027273883
1.53903517105
-23.3717954837
-23.3460234138
-23.3582045958
-23.3307426321
-23.314509026
-23.2870066808
-23.3150504558
-23.2962342599
-0.140370273216
-1.00543735569
2.48361740479
-0.50687626093
1.08645063977
-23.3184489411
-23.3002171517
-23.3375842892
-23.3037242615
6.52560842707
3.4233848458
5.02212671648
-23.2912365384
-23.2825879685
-23.284392284
-23.2737001601
0.302125706974
0.298528404277
-23.3488125176
-23.3132084958
-23.3233909996
4.10136673888
2.22093127885
3.84896847501
-23.2880701363
-23.2728146157
-23.3002688831
-23.279487616
1815.72456524
1817.28579445
614.05314071
615.138280448
1817.27342863
613.90322712
1815.66615674
1815.62938209
1816.73190521
615.005242334
613.232517881
1817.06198389
1815.2990604
613.765306488
1818.90018557
1817.78557149
616.183892084
616.964954064
1818.19705082
1818.17178336
617.084485588
1814.20679698
1816.09692151
612.534133062
612.784484341
1814.79663719
1815.30439717
611.76708237
1813.44594311
1813.43737254
611.747853462
610.045529842
1814.35729597
1812.61016396
610.855375949
1816.30893064
1817.02311823
615.907812891
613.664438995
1817.18727014
1816.0438814
614.380468336
1815.9628334
1815.50637506
616.435811019
615.893425361
1816.55162381
1814.44152991
615.601859991
1815.31951889
1813.98826542
612.716569689
612.44299512
1814.97208651
1814.18450082
613.330902105
1815.01877896
1812.94484888
614.5456411
612.714092998
1813.52461955
1813.69859164
614.38913301
1810.54994587
1813.73103271
616.024934171
614.660350454
1810.72457832
1812.14380049
614.560034684
1808.8309169
1805.95475035
614.138100538
613.379445265
1807.93739564
615.151350929
1806.37185276
1810.18784153
1811.85045034
613.44766581
613.142970429
1811.52653737
1809.61774212
613.726075798
1808.80284217
1807.04656672
612.888864004
611.948077332
1807.8227613
614.421900552
1806.6645449
1812.42048812
1813.05323895
611.686847374
610.300039487
1813.22767459
1812.18613687
611.089217189
1812.20716776
1812.17639374
611.961482713
611.913209148
1812.80277976
1811.28553073
612.067544555
1811.38519228
1810.11166717
611.518075373
610.643572895
1810.61958805
1810.48162758
611.614711191
1809.07875263
1811.21871446
612.399813467
611.109938109
1809.25286667
1809.95466881
612.054812599
1808.33046931
1807.14290643
611.450322058
612.002703276
1807.6913777
612.824308543
1807.14211204
1808.64281795
1809.41490792
610.851453096
611.279110968
1809.4405309
1808.01074241
611.756869067
1808.10324758
1807.09936023
611.975443448
610.662159052
1807.02757906
612.544207237
1807.18721013
1807.03086115
1808.55318093
611.172451425
609.922380013
1807.4805237
1807.03175901
611.555512117
1807.01755002
610.800298492
1806.78845014
17112.2752942
17112.3997071
17112.0537516
17109.5619902
17107.9890583
17107.4269786
12214.9225687
12215.1026537
12214.5827354
12211.3184855
12209.3851151
12209.1521788
18324.0422483
18328.478293
17105.687645
17109.5255093
17110.5463217
17109.1121015
17107.4863931
17105.5063763
18325.9198133
18331.3740707
17110.2830219
17111.4453964
17110.6060644
17109.1783968
17107.5845494
17105.6977347
17107.6232472
17108.9557329
17110.4585447
17110.9405244
17110.2187173
17108.9388491
17107.432919
17105.7011805
17110.1488395
17110.6500428
17111.5802941
17111.6975915
17110.7029212
17109.1705802
17107.5056111
17106.2471002
17110.9050603
17109.2868906
17107.682019
17106.8337806
13423.3351149
13427.9492932
12208.805292
12211.0076411
12213.0443531
12211.4429367
12209.0883597
12206.7964667
13427.6133432
13431.5502915
12214.3411436
12214.5743422
12213.3663967
12211.4171841
12209.3732552
12207.3194068
12209.5879568
12211.8329708
12213.0528236
12213.2355758
12212.2962112
12210.8874162
12209.1031986
12207.6135227
12212.7113616
12213.3329808
12214.2948056
12214.2959653
12213.0570208
12211.1396929
12209.0852917
12208.0393768
12213.2070249
12211.1273982
12209.1238156
12208.5826652
8523.92504189
8530.03470509
7313.73058678
7315.63152969
7316.48633006
7313.45393257
7308.97803661
7305.02761725
8529.11905548
8534.11891633
7314.85826462
7316.90280415
7316.49350055
7313.31659144
7309.12228728
7305.35704094
7312.92285345
7315.35232388
7316.42492824
7316.57180992
7315.23727983
7312.73741033
7308.65777538
7305.08296368
7316.44919556
7316.29418827
7317.03532431
7317.72337401
7317.44628987
7315.68444476
7312.68669185
7308.15721859
7305.70225052
7318.57837092
7318.73124673
7317.99675876
7315.88607306
7312.47989228
7308.31425214
7307.04571145
7312.35642197
7308.75965947
7308.39793313
3630.15751377
3635.24340735
3640.21292223
3643.49872164
3644.66645913
3642.78218341
3636.20869117
3631.32240865
3630.90369685
3633.46371436
3638.88737526
3641.8170226
3644.77769088
3645.38292473
3643.16498082
3636.72984006
3632.04682182
3643.55026169
3639.78965486
3639.50789195
3642.56467821
3644.32821241
3644.7878583
3645.06242396
3642.4846055
3635.39266771
3630.87831455
3643.66069038
3644.0724299
3645.06003686
3645.65301803
3644.9836427
3644.87288349
3641.49831983
3633.46637177
3629.52190907
3646.29183541
3646.9314036
3646.80011673
3645.82295511
3640.68429357
3633.45752927
3631.64312354
3639.48146032
3634.03600846
3633.48598902
12.2970394613
13.2924253751
12.8686910383
11.6879573798
13.0208001737
18.3745508094
27.1257853977
33.2158778823
6.77273546771
6.94280628948
9.65553138254
12.0034364187
11.8454169548
10.8405082908
11.8637498324
17.7679026764
26.8511083659
33.0449647952
4.82890910978
6.04909963351
7.78610840022
9.88252731786
10.8890148083
11.4852415847
13.3740030279
19.0675291205
27.7137633867
34.01642662
7.47158680597
8.01805573663
9.88524189917
12.0059476264
13.3402970431
15.204521221
21.5229450909
29.2920185167
35.0675589571
11.5984412943
11.7637794614
12.2759741687
15.4232039417
22.5829531771
29.4961985872
33.7503158096
22.6394671497
28.6027323855
32.8079936083
-27.0751893655
-27.0296151072
-27.0285001866
-27.0275329819
-27.0148777138
-27.0122888455
-26.9730542338
-27.0131945392
-27.1426071789
-27.6399539835
-27.004575012
-26.9885256014
-27.0072341781
-27.0221413635
-27.0049899161
-27.0004935242
-26.9628647295
-27.0171101262
-27.1540573018
-27.6524607964
-27.0250056525
-26.9737825322
-26.9823297791
-26.9987594918
-26.9912206748
-27.0003494699
-26.979944528
-27.0178880322
-27.1508114638
-27.6022888789
-26.9936847435
-26.9800875548
-26.9979731874
-26.9959246066
-27.0046184708
-27.0050038692
-27.0272525373
-27.1508565993
-27.5828648029
-27.0490044675
-27.0013888142
-26.9948903754
-27.0148601452
-27.0285038221
-27.1536116175
-27.5997413211
-27.0157487265
-27.143734841
-27.6139511879
18326.394321
18324.2778328
18327.4885457
15873.8033547
15876.1610265
15874.4881733
15876.8056824
18330.9728749
18329.9997457
18331.8618662
15878.4052745
15878.6843842
15878.908729
15880.9898745
18328.8227893
18328.2053346
18329.8618965
15876.674936
15879.1993219
15878.7401127
15880.8027731
18332.5737179
18332.0679208
18333.4626628
15881.4383685
15882.8362537
15882.8980776
15884.5288883
13425.629283
13424.6547767
13426.7247022
10972.8486263
10975.6345522
10974.6336565
10977.3364658
13429.6376102
13428.6278307
13432.0466215
10978.4022221
10979.521436
10979.774024
10982.1715101
13429.4929401
13429.6082498
13431.6323081
10977.9905897
10980.0648102
10980.7663489
10982.4535701
13433.4855506
13434.0662504
13437.0664709
10982.3767597
10983.3992796
10984.5287611
10987.3141735
8527.15680156
8526.17024114
8528.92895563
6076.27552631
6079.70390947
6078.46649232
6081.14566733
8531.57118653
8531.69190552
8534.11599772
6082.23858257
6084.83628007
6083.45734702
6087.4756753
8531.55726865
8532.27097561
8534.08309426
6081.13612865
6083.63029856
6083.84681577
6086.2203092
8535.21327634
8536.13741057
8538.47530603
6086.21961201
6088.11605879
6088.98253672
6090.93726514
3626.39000162
3628.97208985
611.91697744
611.834521266
3632.98896273
3631.82170539
3634.17148131
613.908168456
617.912225328
613.367661284
617.447286978
3637.6268377
3636.50700727
3638.86709195
618.76204486
620.080011183
618.48278075
620.013983262
3642.58832007
3640.75147421
3642.94924227
620.486090927
620.57416207
620.242871274
620.419470614
3644.12171292
3643.91720591
3644.66459119
620.394588752
620.96368844
620.318543858
620.894451473
3644.42695104
3645.02694191
3644.72839957
621.737182189
627.218481375
621.566995426
626.634921374
3639.54964174
3643.06350246
3639.890862
629.667841515
630.481570557
628.780464066
629.996588688
3633.25528398
3636.68515284
3633.7446706
629.641609792
630.09630079
629.769589182
631.024396581
3631.02883865
3631.89500898
3631.3403302
631.651006587
614.655867866
632.483755039
613.872734818
3642.80599395
3639.16662445
612.996552731
608.769865559
612.636236394
611.751800068
3630.93955873
3635.98619891
3634.82163219
608.984356903
611.797777211
611.738738988
613.144532464
3636.30406348
3636.21431693
3638.72117753
613.103653642
617.399199215
613.989235382
617.357678559
3640.31577436
3640.84565968
3642.25616319
618.475671576
620.03265632
618.26796222
620.138519317
3643.68128988
3643.44077175
3644.5046263
620.259165231
620.417682253
620.51052523
620.812579843
3645.21825121
3645.00416821
3645.27527452
620.377929208
621.026220713
620.756047857
621.400849966
3644.97966367
3645.42025168
3644.92327075
621.745692376
626.763252852
622.328734033
627.580607046
3639.89560881
3642.95849546
3639.57690978
628.712761804
629.778497417
629.335765898
629.763060402
3633.87210192
3636.29077001
3633.33653583
629.630135327
631.249140965
629.382597212
631.026789657
3631.39105043
3631.38759606
3631.26358935
632.725746219
613.709483204
632.666790774
614.297637625
3641.63348556
3643.94498838
3643.002806
612.55270899
612.464967114
613.411086804
614.705486954
3638.96525028
3642.28710533
3642.07566891
612.545114038
613.906986639
615.243289588
616.24177488
3640.96633297
3642.19887003
3642.91625214
614.544003061
617.442890484
616.666098252
618.41242608
3643.6998524
3644.04077177
3644.86334476
618.307650548
620.427017298
619.28428547
621.416314738
3644.67462662
3645.03687867
3644.84067508
620.873065453
620.871856493
621.842223868
621.197031079
3644.96215607
3644.65924854
3644.78711476
620.841743968
621.520919875
620.928814905
622.598220367
3644.51512713
3644.84538
3644.21255662
622.567738847
627.815342384
623.766609418
629.422013057
3638.96416124
3641.97669336
3638.26907146
629.540006725
629.789299367
631.218820309
630.112803149
3632.4261677
3634.39799353
3631.3253286
629.296237491
630.706835934
628.765758411
629.556347329
3631.02693767
3629.64684143
3630.8365324
632.441003702
614.775334513
631.625061378
616.125703681
613.756445055
615.577131406
3643.82293043
3644.64349333
616.212981297
617.13156985
619.338590457
3644.47331721
3645.14098024
3645.51679718
617.421493361
618.9007387
619.638942673
620.724468915
3645.58372083
3645.75464911
3646.11596157
619.755183902
621.78477335
621.262828151
622.708056698
3645.28022796
3646.33206939
3646.15251703
622.230174912
621.604858097
622.95201569
623.099078515
3644.94537237
3645.85375473
3645.6812385
621.35729202
622.897533746
622.853854103
624.218541018
3644.01561782
3645.35651202
3644.04408593
624.076643372
629.87778951
625.569997287
631.460111937
3637.48959108
3641.17813264
3636.96777669
631.602944256
629.812308765
632.380925477
628.905952122
3630.78247123
3633.23076285
3631.00216436
628.342771946
629.369430491
627.747651311
630.185894644
3631.12624277
3630.1101545
3632.00042119
631.61731499
616.43704376
632.646496098
617.197769935
3646.60650664
3647.13697348
621.835280778
622.934573819
623.704405604
3646.98437942
3647.33586462
3647.31757025
623.090237433
623.518525291
623.551449132
623.383546576
3646.51235225
3647.0715711
3646.61448844
623.497727159
625.111279162
623.528100645
625.770660974
3643.90213291
3645.55693829
3643.31478114
626.509229043
631.450156673
627.045418666
629.404843057
3636.55152042
3639.99508641
3636.30172817
631.88480599
628.54054538
629.197103525
628.027329235
3631.78725615
3633.92495302
3632.65312874
627.753640835
630.875439141
628.203423605
632.232169239
3633.18621346
3632.77144453
3634.41275263
633.207828165
617.346470197
634.363784084
618.375093165
3642.66328754
628.675364472
3636.02114623
628.628495166
627.999116006
3633.11457219
628.212642223
632.286860689
3635.34027274
634.614947546
619.123140556
-23.2951636812
-23.2960463147
-23.3065938923
-23.283016574
10.5647823327
9.5303029212
-23.2661593848
-23.2567779428
-23.2631182892
-23.2667183618
13.0254700887
11.1578886515
12.1894339376
-23.26512664
-23.2710272781
-23.2677122604
-23.2692451114
13.1684919827
12.8043370442
12.7663085123
-23.2713463259
-23.2714364234
-23.272157706
-23.270362865
12.0469380341
12.4040542482
11.7075008267
-23.2668236195
-23.2533009859
-23.2639020645
-23.2514009636
12.0181598319
11.1877736543
11.3710017675
-23.2338387615
-23.2186934536
-23.2350920539
-23.2197691706
15.0317133884
12.2513306954
14.3336582581
-23.2121287505
-23.1791456953
-23.2120196785
-23.1764997008
22.4979107018
17.8516100139
22.2248484732
-23.1122602366
-23.0569352817
-23.1156825011
-23.0653165932
31.3073218613
26.8721630082
31.0945373156
-23.039180284
-23.0602824144
-23.0445211236
-23.0661441866
33.9006693273
32.9405105005
33.7494747108
-23.1006691287
-22.9825395234
-23.1019917753
-22.9746504588
6.48377367226
5.34531523734
5.59113482128
-23.2803466677
-23.267336812
-23.2608757805
-23.2644234791
8.11866320707
6.22502964356
7.21381496566
-23.2738967995
-23.2678992729
-23.2657480024
-23.2667690426
11.0984854251
8.56119890415
9.95205396293
-23.2640661958
-23.2684121692
-23.2659499056
-23.269241593
12.1415287954
10.8725214701
11.2576060538
-23.2683506527
-23.2692282905
-23.2668942981
-23.2665844583
11.2484925182
11.1822547353
10.8487577661
-23.2632036469
-23.2510550909
-23.2592915612
-23.2453342531
10.9916512309
10.7799520105
11.1320717185
-23.236932351
-23.217050653
-23.2317756574
-23.2197537881
14.1262621878
12.2362010579
14.5503058843
-23.2084679283
-23.1731787721
-23.2034633332
-23.1622215186
22.1977455751
18.1295365141
22.5073180779
-23.1061917867
-23.06414657
-23.0970683513
-23.0580163779
31.1105468309
27.091608904
31.3933136517
-23.0340984316
-23.0519490661
-23.0257743201
-23.0449210463
33.9284271067
33.3847220171
34.302781064
-23.0960527384
-22.9659378165
-23.0945555307
-22.9745796909
5.39235386571
5.07105729858
5.77313071602
-23.2660746033
-23.2672411457
-23.2719922094
-23.271342194
6.83305781744
6.35617931957
6.87786275835
-23.2700368861
-23.2694529578
-23.2703680748
-23.2674913964
8.94681844231
7.54127972042
8.44644767832
-23.2645418115
-23.2640815679
-23.2628387313
-23.2582363011
10.569527638
9.53479578934
10.4755162913
-23.2584537546
-23.2595502183
-23.2568429347
-23.2590534846
11.1058331617
11.40017132
12.097576238
-23.2459766076
-23.2346902844
-23.2389071641
-23.2195268789
12.1526012452
12.6445958789
13.2969733664
-23.2233704876
-23.2091728824
-23.202804452
-23.1844501448
15.6316516201
14.3947849319
16.7192426245
-23.1903384456
-23.1479303735
-23.1649272874
-23.1268296035
23.2285584886
20.2336642729
24.1983188195
-23.0807317613
-23.0447134342
-23.0658106973
-23.0268290556
32.0008363909
28.517447446
32.7335938877
-23.0163098658
-23.0372250334
-23.0060615975
-23.0368189797
34.8082282774
34.702923762
35.2091251729
-23.0835780559
-22.9879159715
-23.0848262263
-22.9997415308
7.75199272456
8.97134707146
-23.2695139379
-23.2639255119
-23.2685258804
8.7667702161
9.06672670899
9.61966709451
-23.2545120307
-23.2453412071
-23.2566478971
-23.2443552486
10.8610487644
10.5846003342
11.3976835329
-23.2450668214
-23.2420300487
-23.2450965025
-23.2475583412
12.7968987401
12.0277191856
12.6228006575
-23.2298962248
-23.2126737588
-23.2385229803
-23.2233135489
13.9657261476
13.1271065544
13.8411537131
-23.1998551796
-23.1811358605
-23.2080456902
-23.1912188142
17.8524437963
15.3759195016
18.4762325393
-23.1692673337
-23.1280599983
-23.1636137132
-23.1195839612
25.2508029714
22.298185541
25.9696650051
-23.0534798527
-23.008522938
-23.0362073346
-22.9881596513
33.114681226
29.6422300512
32.8894519725
-22.9851672593
-23.0223062995
-22.965519627
-23.0065576942
35.2166403705
34.6703337322
34.7175089041
-23.0812742456
-23.004060778
-23.0787715811
-23.0200580513
11.9103718411
12.1448055828
-23.2589358451
-23.2604046256
-23.2726305723
-23.2704658673
11.8822240449
12.1250919189
12.107256557
-23.2576264958
-23.2454556009
-23.2672403826
-23.2466119404
13.2914975131
12.4606580661
13.6111527733
-23.227160501
-23.2002933646
-23.224135456
-23.1930169924
18.8952207387
15.9695610249
19.2875022722
-23.1596486747
-23.1099651301
-23.1510446312
-23.0932443886
26.1910418554
22.6192757795
26.0095959081
-23.0142862796
-22.968330334
-23.0008442634
-22.9558619013
32.1812247331
28.9860054026
31.4521695555
-22.9448992643
-22.9880701962
-22.9350009451
-22.9736110579
34.1093878259
32.92828394
33.6520726033
-23.0885574792
-23.0414590503
-23.0894047832
-23.046333875
19.4750476946
-23.0699963574
25.8256692525
-22.9908319952
-22.9507254816
-22.9947474656
-22.9608344444
30.8595330127
-22.9431543928
-22.9855141945
-22.9601531005
-22.9938764482
33.8491971173
-23.1010088646
-23.0551548383
-23.0928994835
-23.0619728748
1790.12395721
1791.43786295
609.907846995
611.959972583
1792.1253336
609.484731535
1789.33044942
1791.42853986
1794.65389993
611.997617532
610.562468957
1793.14839011
1793.19196766
609.702928733
1795.97151056
1793.54280587
615.706278637
614.138754989
1794.20859718
615.512978196
1795.54809259
1797.53001899
1798.60434274
617.061491683
617.640943287
1798.76554783
616.633103212
1797.30930871
1796.62001449
1796.20828628
613.952325676
615.039660113
1794.98652474
1797.71518241
615.299309144
1798.03642237
1800.13692721
617.562893966
616.403217326
1799.29029727
1798.99483155
616.485004299
1801.06660164
1799.91816162
619.30033889
618.471438226
1800.00785954
619.05867647
1801.08111848
1802.20880383
1803.16275379
619.678372486
619.972887638
1803.21024431
619.521689336
1802.23626422
1801.61140252
1801.37487025
618.511812043
619.232302721
1800.54709962
1802.45543382
619.130415511
1802.68552766
1804.21357245
620.002464832
619.677438233
1803.63995689
1803.41768749
619.554874706
1805.22165119
1804.13702563
620.664700965
620.372065148
1804.16909468
620.620532607
1805.23369536
1806.13167957
1806.78001094
620.648484939
620.738397141
1806.98744936
620.59212473
1806.10381057
1805.52606475
1804.99562104
620.357134827
620.444058834
1804.56320554
1805.85990585
620.57316671
1806.37870443
1807.3175448
620.529013186
620.498841182
1807.17162521
1806.63023389
620.521171771
1807.62315159
1806.98919384
620.41414701
620.798002173
1807.37309255
620.724840711
1807.16813261
1807.74585576
1807.47848703
620.562448536
621.06808802
1807.99640876
620.733505792
1807.27044248
1807.92272544
1807.74188908
620.537270562
620.377956227
1807.61788936
1808.09308029
620.508384439
1808.1256631
1808.77337772
620.933304554
620.511482881
1808.4497732
1808.35155926
620.596607417
1809.14154823
1808.00419609
623.114273187
621.68301839
1808.44982835
622.897716293
1808.7724781
1809.91246786
1810.29347644
625.02745255
626.912592101
1810.49680621
624.737353771
1809.6487978
1809.52480741
1809.28825748
621.5807082
622.823734513
1808.88105066
1809.94864955
622.780542005
1810.16213198
1810.89021347
626.670532407
624.625013497
1810.67934589
1810.54491941
624.440425411
1808.46973861
1810.01370612
630.89296849
629.277373466
1810.17859629
630.537220087
1808.17832033
1805.3956644
1800.9191367
630.994011458
630.45593118
1801.43883185
631.025733298
1804.89518555
1808.51924083
1810.3092481
628.982321085
629.935419325
1810.27384664
1808.40230832
630.155358456
1805.49912306
1801.69024382
630.270200075
630.170447606
1801.67957429
1805.28782929
630.679317465
1794.72488984
1797.33427771
629.198611547
629.606974298
1797.93040945
629.523715808
1793.98341205
1792.58964001
1790.47045201
629.280773562
630.376708032
1791.15209782
629.707380137
1791.76087817
1795.35693204
1798.62622589
629.601624803
629.970764878
1798.32958733
1795.86154707
629.770177501
1793.28070527
1792.20271007
630.723797539
630.318193088
1791.74316453
1793.81880606
630.094781864
1787.58116777
1789.25425058
634.220157851
631.853763603
1789.79195213
634.363297168
1787.15312382
1782.98508802
1786.03615417
637.427330045
614.319279634
637.467603067
1785.90734458
1782.67109602
1787.93275512
1790.65877292
632.180778171
634.733640122
1790.26218658
1788.1109369
634.520219779
1783.31507283
1785.1917824
614.175034714
637.497577921
1783.93696632
637.211146939
1785.48027783
1802.59140883
1803.65272068
611.369822316
611.810869801
1800.53044338
611.428932217
1804.28256465
1800.44238189
1795.77799003
609.371564966
610.099580148
1797.823005
1798.39567178
610.867537366
1803.75683366
1805.95178864
611.620388205
612.066326172
1804.83595496
611.580589752
1804.78082807
1802.25864648
1802.65303239
611.122406146
611.815124431
1800.68794912
1803.77158971
611.369829273
1796.63652181
1794.33794387
609.694076179
610.088592247
1794.14018435
1797.08832565
610.415757973
1796.8032583
1796.0919952
610.780223657
612.118975218
1794.88667751
1797.69683085
610.788446948
1798.93148891
1801.60624277
611.12458189
612.091087789
1799.52634554
1801.03401545
611.20808997
1798.81639329
1801.12261165
612.619741042
612.650709265
1799.39991315
1800.8798549
611.463678409
1800.0132142
1797.33679941
614.741927252
613.421113509
1798.62289692
1798.81881296
614.702369114
1801.18514627
1801.087426
616.238058887
617.449580722
1799.89423688
1802.25102132
616.191819406
1801.27237933
1801.69598257
613.771624019
615.143803536
1800.25488645
1802.55366638
614.924912928
1802.3147232
1804.41929707
617.417468336
616.304845408
1803.32041247
1803.4622211
616.230260803
1804.2030354
1802.28528872
619.247032889
618.505024184
1803.29571867
1803.32983932
619.208170473
1804.89834102
1804.80372127
619.71547477
620.041042885
1804.11295087
1805.51144406
619.632731317
1805.08025007
1805.27540608
618.371952146
619.050507186
1804.27853091
1805.9676529
619.099239912
1805.77179959
1807.0684918
620.064032778
619.691296207
1806.32011657
1806.58396429
619.630276424
1806.75046037
1805.48449015
620.434976743
620.342997302
1806.26561924
1806.10773232
620.440734944
1807.36991083
1807.65486978
620.446097496
620.4448779
1807.03394002
1807.96493491
620.406894957
1807.3292883
1807.48826276
620.409828703
620.645944077
1806.81239735
1807.9200174
620.537959234
1807.86625264
1808.58917183
620.639630216
620.73707889
1808.35190288
1808.36203027
620.544020526
1808.62404319
1808.09757467
620.467164581
620.529314706
1808.40351331
1808.38082665
620.581920899
1808.9772499
1809.2179786
620.626412171
621.23388511
1808.76051134
1809.46775223
620.786471033
1808.8746509
1808.7133584
620.683086079
620.807664637
1808.70320444
1808.73425932
620.707442122
1809.09781967
1809.2229628
621.351003881
620.890012672
1809.49613301
1808.86935215
620.892058365
1810.55562093
1809.76345904
623.010867475
621.973058993
1810.36696948
1809.98930472
623.206412813
1811.04126761
1811.04580261
624.82832804
627.105875611
1810.86579616
1811.17203071
625.0349291
1810.61175047
1809.79376953
622.150397773
623.749854509
1810.01637767
1810.47744635
623.458627102
1811.08245054
1811.00318288
627.296188038
625.672648413
1811.16223139
1810.96397963
625.315317377
1808.17182985
1810.27874502
629.758896283
629.001341523
1808.26334545
1810.29472853
629.796478473
1805.05899623
1801.59781646
629.908590507
629.715640724
1805.13416034
1801.42329636
629.949250984
1808.01268758
1810.0307826
629.113558659
630.062985617
1810.20216223
1807.79104611
629.877079082
1804.87573233
1800.82492846
629.713374803
630.062689674
1801.18081058
1804.55182566
629.997519958
1795.7900989
1798.62334094
629.992827308
629.352828317
1796.01389404
1798.32986813
629.901482738
1794.01765435
1792.51569514
630.470301781
631.346906905
1794.10136764
1792.52787075
630.540930798
1795.40496272
1797.57542875
629.269396817
629.646142628
1797.99761801
1794.80355107
629.750970306
1793.64339784
1791.56299328
631.221331614
630.066830535
1792.20385464
1792.96431094
630.350163438
1788.29965762
1790.92516482
635.012030809
632.800487241
1788.29629229
1790.98095698
635.134760223
1784.00544508
1785.13499595
637.887737425
613.671714469
1784.139784
637.946572946
1785.05612619
1788.12608874
1790.27440695
632.717928224
635.141271556
1790.73509137
1787.89672675
635.057741357
1783.7876869
1784.9298413
613.929831598
638.164849002
1783.58902208
637.89756897
1784.92342066
1806.38940663
1806.43530754
612.406245342
611.883382972
1805.71327255
612.713315703
1806.44816349
1805.95635538
1804.14472763
612.457511287
613.26049291
1804.97158539
1805.37444009
613.041919975
1806.91205339
1807.18569386
612.199061781
613.699681603
1807.1281634
613.194943184
1806.7297369
1806.6559196
1806.96416641
614.015569153
614.161801068
1806.28964809
1807.07477347
613.64120907
1804.43320933
1803.35636372
612.974099749
613.6210305
1802.89826727
1804.8337304
613.827815941
1804.36143507
1802.82294688
613.452477238
614.59483863
1802.74036818
1804.50846907
614.140596193
1805.7781896
1806.89766761
614.49119484
615.583662271
1805.96831902
1806.90639426
614.689281612
1805.80538884
1807.23797308
615.435338757
615.91149236
1805.96522218
1806.98098586
615.027737519
1805.30812165
1803.23605757
615.507613089
615.236678557
1803.90566367
1804.80479057
615.948213561
1805.86703349
1805.41082365
616.496099519
617.63534686
1804.63146845
1806.46954913
616.746058636
1806.62809178
1807.45749299
615.946802775
617.223365123
1806.23535843
1807.79393294
616.660739646
1807.04244489
1808.38522747
618.044611128
617.748520222
1807.42026125
1808.09413586
617.253665077
1807.54057716
1806.10579081
619.119204101
618.455550357
1806.7440067
1807.03791059
619.292890469
1808.0793526
1807.78568235
619.874313761
620.734529113
1807.31295609
1808.54394976
620.146358054
1808.23364173
1808.68862294