/*--------------------------------*- C++ -*----------------------------------*\
| =========                 |                                                 |
| \\      /  F ield         | OpenFOAM: The Open Source CFD Toolbox           |
|  \\    /   O peration     | Version:  v1906                                 |
|   \\  /    A nd           | Web:      www.OpenFOAM.com                      |
|    \\/     M anipulation  |                                                 |
\*---------------------------------------------------------------------------*/
FoamFile
{
    version     2.0;
    format      ascii;
    class       volScalarField;
    location    "3.45";
    object      p_rgh;
}
// * * * * * * * * * * * * * * * * * * * * * * * * * * * * * * * * * * * * * //

dimensions      [1 -1 -2 0 0 0 0];


internalField   nonuniform List<scalar> 
28582
(
19562.382799
19562.1384409
19563.0799741
19562.8335802
19564.7189408
19564.4187638
19566.1705511
19566.0673946
588.535573869
600.56654078
0.00263945659378
19566.1393808
18527.5909271
18506.1910559
19565.8772726
19566.3588199
18497.1460665
19564.5568274
19565.315133
19561.3579611
19561.4732349
19560.2260194
19561.6887093
19561.9682406
19560.4486862
19563.1923163
19563.2496832
19564.2230384
19565.4322685
606.602114987
-0.0384716639966
0.0428146796944
19564.6272016
19565.3689511
18556.1284206
18533.3933537
19565.8848921
19564.7438733
19565.705013
19564.7015136
19564.4646184
18442.4980335
19564.8841575
19564.3461068
600.811168627
590.761240919
1.42161823477
1.79011893627
601.783454129
2.50141982191
19566.1261321
19565.6570328
18522.6423019
18550.9126288
19566.2467062
18532.1676167
19565.9825992
19565.2443874
19565.0919417
18514.128589
18489.0785382
19564.7270503
18509.6157759
19565.4754608
19564.3273842
19564.8835887
18487.2591936
18484.8234129
19564.1315317
18485.2177891
19564.8079787
19564.8413244
18484.5114371
18484.5843886
19564.3742463
18487.5503089
18485.5338626
19564.7237443
19566.4257408
18507.1293576
18539.0737221
19565.2755884
18539.8174621
19566.1248876
18503.7967704
580.302634439
1.41417865483
557.6736964
569.309435599
0.84390323962
0.986566604818
596.898661369
2.03118218295
1.59333027592
617.137414258
3.35082868824
625.987711161
2.26132204237
19564.8375256
19564.3820977
18557.4790749
18536.7377866
19564.8743383
19564.2071793
18536.8446147
19565.0967939
19565.4799047
18551.0968438
18531.1408612
19565.3305723
19565.4416832
18535.7250341
18535.1663946
18522.1314491
19566.0661778
19566.1578481
18526.9907337
19566.1984333
18530.2091643
19564.7990469
18478.9898559
18483.2464282
19564.1802006
18472.6483104
19564.6355768
18468.3114197
19563.7182703
19564.129319
18462.0934386
18413.6868742
19564.3006078
19563.0567898
18444.7725551
19565.2890814
19565.958762
18499.6572689
18524.4374125
18496.1487564
19564.2390167
18477.526612
18455.7263239
18412.5545202
19563.3845407
19563.3754669
18407.9360303
19562.8293589
18442.9427989
19560.8460439
19563.4257575
663.115584176
0.161521341628
19565.524008
18515.760734
19563.3545166
19561.0897253
18409.1798399
18374.5652155
18214.5134907
19557.8711743
19554.5077078
18117.7199506
17774.0233557
590.535597242
654.684561288
709.806146757
4.15803236195
5.03382653959
6.79787153911
766.912626173
821.61737694
19565.2973351
19565.9988946
18516.6372868
18519.3078373
19565.670648
18508.7512238
19566.0517087
19561.074983
19563.510891
18360.6381902
18378.8816794
19562.1321904
19562.1971426
18333.8725587
19561.0832322
19562.7098747
18369.623351
18336.3343119
19562.2759952
18325.7634211
19561.8708956
19559.4089525
19557.8366182
18196.1828314
18284.4854559
19556.9937795
18265.8853409
19560.3094654
19549.3834616
19554.3606608
18107.3901206
18011.8834781
19553.6413323
17992.5757041
19549.9386234
19545.1025333
19540.4588299
17772.5151341
17904.0416052
19541.0764414
17875.0090377
19545.139785
19571.3678563
19566.7930204
19565.5481342
19563.3774006
379.146189263
460.729119246
355.478731761
412.929104853
420.131204689
0.0421362103952
0.169981281561
0.0880041905942
0.101571533361
0.0580764173638
0.124698745336
19571.9168093
19571.2320813
18898.680532
18944.541536
19573.7001427
18966.9528438
19569.7427209
19567.982434
18952.9336735
18935.9279579
19571.2310034
19568.9693227
19568.7217903
18975.4133926
18876.1362457
18948.885676
18882.8520722
19566.9035581
19564.2516177
18794.9067802
18560.2384491
18833.737731
18647.0116357
19566.6377109
19565.2038125
18931.5085785
18882.0097711
18845.1197894
19563.9086495
19564.5259444
19563.4448329
18838.1120093
18660.1202258
18814.1100103
18657.4992036
18788.343629
18649.3229427
402.891199945
390.92028191
399.835005002
1.17352780359
2.60518276069
1.41915582902
2.66047936771
4.60384112447
5.18414751362
4.38768652572
4.46317556593
370.260248573
354.832604433
414.057448528
361.310799851
388.320904316
1.19944131919
2.33453377859
0.717318640759
1.89192158239
490.485812767
431.228912404
461.708473136
3.72587421275
3.529352043
3.20763897647
3.00718743332
375.030133176
375.545483566
0.323088111732
1.39318535392
1.12183326406
444.443126472
409.5056963
439.433221843
2.77318009263
2.94852735734
2.25922413341
2.97332333529
19570.4850249
19572.2775315
18871.6694754
18904.1550997
19572.4117055
18876.7038374
19570.6884495
19570.3265711
19571.9306115
18919.8758656
18904.9120639
19572.034663
19570.3629186
18891.8280267
19573.9662554
19572.9842777
18954.8775733
18952.6968247
19573.2596578
19573.1263771
18957.0058677
19569.3659543
19571.2928065
18917.6201998
18947.8014472
19570.0236605
19570.5022723
18927.3269737
19568.7096198
19568.8659421
18942.6154803
18922.1889095
19569.7839868
19567.963949
18925.7221204
19571.5076369
19572.1931134
18958.1434803
18970.2571084
19571.9755277
19571.2425877
18968.1096533
19571.0383826
19570.1629868
18914.4579108
18851.9126461
19571.2755976
19568.473036
18941.4324223
19570.5182251
19569.5019617
18969.2063149
18956.1353865
19570.5708368
19569.3832071
18970.1062851
19570.1671448
19567.9695129
18860.8313315
18916.8263827
19567.9078678
19568.8972979
18947.6443795
19565.5455678
19567.8860155
18629.3396038
18731.2709594
19565.1363666
19566.3970668
18705.8628253
19563.6186574
19559.6864169
18546.0937224
18519.5440777
19562.4352614
18645.5515517
19559.8527055
19565.1407828
19566.3719452
18747.9346541
18700.5315577
19566.2676268
19564.5748643
18726.9220701
19563.6414913
19561.1480678
18560.3842817
18622.9911229
19562.5655845
18677.6584598
19560.1786697
19567.6997582
19568.4547337
18948.7553591
18917.3726826
19568.4263808
19567.6326226
18931.6306438
19567.405874
19567.1675768
18915.761129
18870.3405073
19568.001486
19566.4581576
18926.1444012
19566.5838985
19565.2117628
18862.9555403
18871.0433179
19565.8156866
19565.6803338
18911.5218188
19563.7763826
19565.3689489
18714.0902678
18771.5995666
19564.0047323
19565.12466
18748.7555558
19563.1324701
19560.9695623
18638.4561278
18631.4794875
19562.686527
18716.8068649
19561.8384843
19563.5906938
19564.2239826
18770.5055124
18719.7196986
19564.6392372
19563.073323
18743.8372722
19563.0760005
19561.4835989
18638.3458605
18642.5072772
19562.0429255
18718.9885327
19562.0274029
19561.4040873
19562.7578947
18703.3473382
18679.4960246
19562.0619456
19561.7825146
18678.8938542
19561.0916015
18635.5148395
19561.4754837
19561.2716855
19561.3966602
19561.051071
19558.5574212
19556.9830094
19556.4191969
19561.9120591
19562.0940293
19561.5753326
19558.3140989
19556.3767704
19556.1436065
19548.4829559
19552.9541875
19554.5360844
19558.4457141
19559.5255742
19558.1004594
19556.4756271
19554.4959048
19550.4162758
19555.87193
19559.2578185
19560.3966161
19559.5704488
19558.1629072
19556.574776
19554.6900539
19556.6097651
19557.9440165
19559.4496155
19559.9328243
19559.2113487
19557.9316658
19556.4259314
19554.6956109
19559.1417353
19559.6444518
19560.5751302
19560.6924658
19559.6985256
19558.1659377
19556.5006997
19555.2429042
19559.9014408
19558.282792
19556.6775058
19555.8308519
19545.2023712
19548.2243499
19555.4414213
19557.9485465
19560.0174521
19558.4222337
19556.0700148
19553.7859499
19549.239532
19553.2628033
19561.1008127
19561.5172048
19560.3389107
19558.3939201
19556.3528202
19554.3074933
19556.402658
19558.7213049
19560.0168769
19560.2134268
19559.2772009
19557.8699808
19556.0872157
19554.6042995
19559.6948667
19560.3181415
19561.2797378
19561.2808958
19560.0415897
19558.1237888
19556.0700079
19555.0298759
19560.1999563
19558.119659
19556.1163465
19555.583335
19541.3761911
19546.5065804
19558.6091647
19560.5928756
19561.4769642
19558.4544191
19553.97537
19550.0293884
19548.8737527
19552.2017331
19559.7858721
19561.874604
19561.4776476
19558.3029627
19554.105819
19550.3487728
19557.7944907
19560.2499372
19561.3765795
19561.5392263
19560.2120067
19557.716925
19553.6427203
19550.0793259
19561.4108799
19561.2677071
19562.0103243
19562.6966353
19562.4188787
19560.6577655
19557.6636685
19553.1411783
19550.6990211
19563.5560825
19563.7126886
19562.9822435
19560.8748237
19557.4685459
19553.3086079
19552.048466
19557.3632762
19553.7730876
19553.4223936
19546.105573
19552.0816795
19558.6518915
19561.999922
19563.2835719
19561.4904313
19554.8722586
19549.9666581
19549.4299852
19552.0049767
19557.407222
19560.3550772
19563.3658016
19564.0014631
19561.7873314
19555.3098106
19550.6677396
19562.046285
19558.2859553
19558.0209882
19561.0980493
19562.8696974
19563.3310003
19563.6001043
19561.021988
19553.8477827
19549.3546908
19562.2158878
19562.6491644
19563.6219228
19564.1686549
19563.4522889
19563.3402153
19559.9828484
19551.9070364
19547.9894608
19564.8589807
19565.4635291
19565.3186682
19564.3350797
19559.1851398
19551.902242
19550.1359885
19557.9841922
19552.4979982
19552.019459
598.949029319
616.110076026
608.654682593
584.36539801
608.258683555
696.917542097
851.433644432
955.038250012
495.523130135
499.222323505
548.988773033
592.972281393
589.419911999
569.044695513
585.434635698
686.645935118
845.533907084
950.502595527
457.358803139
481.934248827
513.982862215
552.496138624
569.473198978
579.793311619
612.290240179
708.601063039
860.352193334
970.261387537
507.522966742
516.091566664
551.441260238
588.584079694
612.384748342
644.235602519
753.069700468
888.016100652
990.548650751
584.767634582
585.463990735
593.27926702
645.772047531
769.878431187
890.234341191
962.518707426
768.972952173
874.057656621
943.137288093
0.0135051525519
-0.0498142071302
-0.0507059621442
-0.0498056259152
-0.0373777138065
-0.0345997333876
0.00850549946379
0.0640413942116
-0.0741727614156
1.32153442077
0.00619783124853
-0.0109342824063
-0.0297257687412
-0.0444059613051
-0.0274899160801
-0.0224463511079
0.0196325850616
0.0312422558064
-0.0487089179532
1.47398334163
0.0530366098479
0.010854219014
-0.00460497763275
-0.0151700815336
0.0088451568255
0.0023762345956
0.0284250498126
0.0997354695388
-0.0977578493391
0.96730213827
0.00582032164806
0.00596281539522
-0.00494909267335
0.0353975492707
0.00739377154025
0.0343572192095
0.179535312235
-0.0800885526596
0.85741056267
-0.0486066610781
-0.0181218287826
-0.00803988805968
0.0675602266549
0.130370591617
0.100982944486
1.27775273145
0.0890502173559
0.114676138813
1.50089304913
19550.8357331
19548.7668826
19551.9811993
19546.8339841
19549.3240589
19547.5181703
19549.9215611
19555.4639939
19554.4946229
19556.3583287
19551.6449823
19551.7299792
19552.2087753
19554.3180781
19553.3209333
19552.7006004
19554.3594512
19550.1263736
19552.6633213
19552.2021088
19554.2794984
19557.0701804
19556.5651951
19557.9591253
19554.9126103
19556.3075442
19556.3841143
19558.0145107
19547.1744305
19545.7399513
19546.8590744
19542.8145606
19542.9422486
19542.4096142
19544.6421859
19550.6912102
19549.1432633
19553.4442783
19546.5109406
19549.7996324
19547.2454703
19552.0632728
19550.9907191
19552.0361913
19554.0480181
19548.7987241
19548.4156446
19551.9247813
19553.3092889
19555.4020882
19556.4693073
19559.4816451
19550.5166354
19553.4339937
19555.4079987
19558.4168678
19542.2641561
19544.6300891
19544.7081277
19540.5575909
19543.8879466
19544.9586146
19547.5731843
19550.9758703
19549.0565029
19553.616269
19549.5354107
19553.9897291
19551.1976329
19556.5867422
19549.3902304
19552.4693879
19554.0118107
19549.8144866
19552.1617223
19553.3442023
19555.7031721
19554.8124592
19556.0672722
19558.6565423
19555.0134978
19557.3979124
19558.4404487
19560.3895472
19544.5374117
19547.3041265
18190.8969214
18299.8301236
19548.4644426
19549.4424121
19551.7588877
18197.4015911
18268.3100829
18291.7355201
18319.6453854
19555.8035753
19554.3759923
19557.178516
18289.2848315
18340.961066
18330.6603431
18377.8845866
19561.0462064
19559.2035765
19561.451339
18362.944464
18430.2293835
18397.7409869
18457.7478973
19562.6779817
19562.5028269
19563.2974324
18428.968642
18400.1819855
18471.544859
18474.6360594
19563.0828755
19563.6723589
19563.3715347
18400.5125001
18422.014829
18476.8026183
18463.0144294
19558.2631369
19561.6911409
19558.5330872
18400.1661468
18040.074231
18422.393928
18047.3503808
19551.8880192
19555.3022657
19552.3615763
17867.4078747
17482.2613284
17895.9906648
17543.6266781
19549.7006787
19550.5883328
19550.1215082
17510.5189698
17370.4847402
17561.1714335
17308.900591
19561.4345072
19557.7424546
18477.3263224
18414.1876963
18611.9950388
18559.2423115
19549.5124485
19554.5736678
19553.3426214
18373.2440437
18346.4677597
18528.2430673
18485.5517685
19554.8426079
19554.7184935
19557.2056872
18333.7263728
18349.0798435
18470.7184967
18453.4672395
19558.8318527
19559.3165823
19560.7339761
18356.0634466
18394.8873969
18454.6250166
18470.6876911
19562.2535106
19561.9245317
19563.0129179
18412.0123395
18476.1178512
18480.9325387
18518.6939966
19563.8432888
19563.5486905
19563.8425717
18488.2951299
18502.2563423
18515.9183481
18485.3736529
19563.6069663
19564.0013131
19563.5086525
18504.4876797
18472.7091325
18485.4990261
18460.4218267
19558.4758697
19561.5378038
19558.1178664
18422.4604201
18041.9686866
18408.037619
18014.6349218
19552.4646284
19554.8048314
19551.8306009
17894.7634204
17559.1874625
17862.1930413
17517.1580719
19550.0837443
19549.9646386
19549.8622717
17572.0657914
17278.8070734
17535.8339573
17254.9193912
19560.156173
19562.4965352
19561.5459429
18631.7343075
18584.897699
18649.6902486
18619.9641407
19557.480164
19560.827172
19560.6182338
18559.7425768
18523.1670465
18614.6947873
18608.4070721
19559.4972212
19560.76094
19561.4963434
18510.8860272
18491.1927254
18603.0189838
18576.7757745
19562.2437595
19562.6234451
19563.4405995
18490.601139
18500.153597
18560.0702318
18541.0788832
19563.2251246
19563.6006413
19563.3943066
18507.5591674
18513.434152
18523.6989459
18421.378784
19563.503528
19563.176915
19563.2944782
18503.7513725
18454.3429164
18394.3201484
18391.506552
19563.0589836
19563.3687781
19562.7491954
18455.9804944
18432.6807532
18398.1308255
18378.7270004
19557.4549825
19560.502962
19556.7780537
18381.38295
17994.3140372
18328.9171923
17919.2845405
19550.8801802
19552.852006
19549.7732007
17838.0848206
17487.8258336
17739.1961145
17368.4602576
19549.5686539
19548.1928679
19549.427192
17507.8763286
17271.5131218
17404.1249903
17279.1615781
18642.7629377
18609.613284
19562.3985018
19563.1995623
18607.1340184
18607.5206447
18572.3450829
19563.0566449
19563.7155874
19564.1179278
18608.0257635
18583.5811895
18578.5425935
18555.705033
19564.1246072
19564.3391144
19564.6864778
18570.1879086
18538.8836089
18544.6167585
18523.9565807
19563.7544436
19564.8712871
19564.6700245
18515.5358646
18412.2493826
18518.6219205
18487.5732891
19563.4166901
19564.36381
19564.1740532
18383.2300774
18375.8155671
18461.3267746
18430.9735301
19562.4924129
19563.8485962
19562.5494728
18379.6257349
18353.2031253
18427.8114408
18356.5901147
19555.9259423
19559.6546572
19555.4185692
18298.1598507
17875.3400245
18264.133886
17779.7662227
19549.2229653
19551.6679428
19549.432973
17697.1093838
17355.0479871
17630.7822244
17420.7120334
19549.684015
19548.6566815
19550.6134176
17390.6939926
17300.1687233
17455.5283146
17372.5438035
19565.1636339
19565.6774419
18519.5579961
18517.4584695
18521.3848004
19565.5161263
19565.8615203
19565.8479221
18525.6680699
18532.2900347
18516.2037897
18508.9557808
19565.0365236
19565.6090757
19565.1682218
18518.5028011
18482.9428388
18502.5362595
18475.9691019
19562.406912
19564.1092888
19561.863778
18467.2973889
18342.2692552
18445.7379785
18232.0646214
19554.9889118
19558.4768791
19554.7432591
18238.5615217
17762.6329016
18122.4697438
17758.9721173
19550.2518329
19552.3925876
19551.1386376
17635.3820776
17482.421488
17682.6358294
17617.0546804
19551.7595794
19551.3508221
19553.0179724
17517.0008471
17365.8196071
17647.726513
17418.2467833
19561.1734275
18202.3049207
19554.5029627
18100.2875209
17772.3468432
19551.6398201
17695.5042595
17636.7979234
19553.9000765
17661.2085908
17427.3165751
4.02022038432
0.806939170816
2.94764560124
0.431886858132
566.767037943
548.524553017
0.0532697576373
0.0461329016199
0.0433979021579
0.036472531892
611.436394847
577.574315899
595.597610637
0.0487618915594
0.0514980304741
0.0472175418952
0.0914558589295
613.615628409
607.333853415
606.135537573
0.0384620678484
0.0335484139965
0.109839767829
0.0919297096283
591.609144313
599.313250878
585.867895718
0.0627757268733
0.252627257478
0.101546396327
0.112201893468
590.795606257
575.476737635
578.917603664
0.47636902166
0.367384329133
0.130433697512
0.121568418689
640.608074616
593.313660109
627.997145257
0.44316535222
1.52805018218
0.164858661971
1.13682835746
768.262303659
688.144533999
764.22727727
3.24400502067
5.89669804005
2.93494203663
5.91476616422
930.076089533
846.813503834
925.25847418
8.13050032182
9.44188266967
8.34546374173
9.58845741492
949.672410009
949.933120839
945.911011196
16.9608201394
28.6765176574
16.9320520454
28.77160165
489.29682171
467.605411499
472.467824605
1.92270621024
0.357803322714
1.55000073186
0.376969856814
520.702998753
484.980472065
503.828410883
0.0443967584123
0.0390907209433
0.103190415905
0.0396325672632
576.02831272
529.073435646
555.113189142
0.0475822452432
0.0690463604474
0.0425810993494
0.039928656054
594.946848942
571.739734642
578.998806776
0.0950928174743
0.107016500788
0.0854674412893
0.125634564617
577.131896018
576.854504525
569.086706397
0.11957997135
0.132842392752
0.227573901719
0.200610182935
571.113150034
567.507001607
573.676366746
0.107330558135
0.108890050022
0.20609069453
0.130897648769
623.870559253
591.706855267
630.808159215
0.150043759372
1.1509157589
0.397551569943
1.41052287006
763.954613032
692.364732709
768.691403652
2.95095328435
6.00315148346
3.40621877504
6.64800166765
923.584861989
849.201312847
927.624101196
8.88931807647
10.3931354796
9.37016284078
10.9020824469
947.984973995
955.357438714
954.884161724
17.9169405225
29.31483767
18.8824464218
29.5894519948
468.758673336
463.050386365
475.441819805
2.03170162508
0.848520231113
2.73136698088
1.85618151959
496.038698775
486.702180743
496.083433487
0.229145702398
0.0505378486616
0.869363237453
0.420061477472
535.66496512
508.303815632
524.827827536
0.0349213160419
0.0353914526845
0.216535043903
0.0504701595206
565.590787647
546.057226662
562.369086787
0.044595626749
0.113551386059
0.0482624362743
0.905923299455
572.020684992
577.728562085
589.724294899
0.38786871272
0.836167323269
2.45175624068
3.51997659109
591.674358643
599.522872865
610.188907967
0.913620210184
0.941833756819
3.44857790806
2.8069577343
650.189110878
629.065795843
668.626144846
1.1586667583
2.18768773982
2.4512438607
3.20844820429
780.365803635
729.234896441
797.257863699
4.14125775573
7.34150597312
5.07883029186
7.92403981162
939.193685353
874.607901707
952.742810378
9.16518353577
10.329953044
9.67120091484
10.9397979298
970.938794224
982.284485369
978.666157861
16.9593685324
25.3211642273
17.3678905933
25.3717978522
511.727946866
535.032347534
1.48474667898
0.956951459712
1.16767892005
530.283182768
535.778524907
545.713718581
0.428951894308
0.0824560362481
0.525196807606
0.596289258249
567.497637087
564.171644566
578.922733232
0.529022312797
1.71943156833
0.969598191319
1.19229301203
603.179208452
589.363899493
599.821922161
3.12184940736
3.64922731403
1.82657033655
2.08683359005
623.15659288
608.836670801
620.675091958
3.25223137091
2.63806957975
1.97976942952
1.92096193308
689.62156328
645.940007705
699.601006308
2.39496332426
3.56088482745
2.49415559994
4.11567352172
815.820689159
765.947333298
827.965373195
5.63952872726
8.53328788039
6.5082114251
9.4516312563
959.923492261
893.877821614
955.175518237
10.2094837337
11.3725152486
10.6671569479
11.3218293052
978.740881948
983.282659157
968.923601248
17.080750695
24.1738592588
16.5263577451
23.5242314767
590.542434678
594.344754923
0.936984597039
0.561507633723
1.61810479808
1.52189246862
586.819954239
592.800831126
591.308184012
0.139953380449
0.247855300297
1.0711732049
0.835681395436
610.189323093
596.592787678
615.528418468
0.441072470584
1.01278559843
0.945029017159
1.49296989008
706.471182904
655.803959544
712.663592038
2.32691953916
4.62018033177
3.00785760782
6.00888505141
832.286168765
768.652152839
827.519019832
6.87063955004
9.3932724852
8.03139106276
9.82948648574
939.405018378
880.728250571
924.62855254
11.5832195248
12.5650282407
11.4675676877
12.2360121086
953.839258462
945.419893488
946.486334516
17.9538287288
25.3728241483
17.4308880677
24.8058239566
714.529592006
6.77698842904
825.02225849
8.21877498625
9.33630483913
7.88409133387
8.79114830788
914.854883168
10.9676950505
11.9048276755
10.0543289756
10.7517836666
946.706828261
17.9913639426
27.2094258472
16.3921353052
27.1604483678
19545.1776438
19545.2947123
18185.9737382
18218.9371316
19547.0088981
18203.8257535
19543.9622225
19546.8204167
19548.9279729
18248.6573115
18307.9981559
19548.3642278
19548.0517768
18235.4449008
19550.0761058
19547.1746468
18224.2416647
18238.7077205
19548.4851046
18245.7933873
19549.1157739
19551.5023929
19552.2435168
18250.2060811
18275.2291143
19552.7369219
18256.758999
19550.8813602
19551.1992503
19550.5296694
18267.2903796
18299.5885079
19549.7589626
19552.1086544
18274.7130208
19552.505819
19554.5714356
18298.3358866
18311.5505355
19553.7218891
19553.4642463
18282.9447867
19555.1194635
19553.7700492
18310.6112359
18289.848336
19553.9705993
18303.3985681
19555.0935893
19556.4002426
19557.260332
18325.3677739
18343.4923549
19557.5116856
18322.3387438
19556.3248039
19555.9216616
19555.8206159
18310.493759
18347.2828377
19554.8687727
19556.7433885
18321.5371826
19556.935118
19558.2214495
18358.9336921
18362.4797689
19557.8752021
19557.5338255
18337.7716969
19559.1912213
19558.17504
18387.6632146
18362.8710034
19558.3221449
18386.2872657
19558.8836481
19559.3794792
19560.3296488
18411.6720862
18456.2097112
19559.6545778
18418.2814047
19559.47483
19559.4917971
19559.0257612
18378.9240546
18421.903726
19558.7191507
19559.9036321
18400.1142226
19560.030309
19561.7183588
18454.9054199
18442.3442272
19560.8993838
19560.7795386
18424.6647623
19560.0503084
19560.4652302
18426.3403826
18468.7899412
19560.0647059
18468.6486788
19560.9824555
19559.7133058
19560.8281718
18420.6491446
18441.4675504
19559.4792778
18463.3045514
19561.1602424
19561.71454
19562.325951
18474.4168486
18479.8492617
19561.4219641
19562.8403396
18479.5960709
19561.8210126
19563.3242997
18462.7591729
18479.1063159
19561.8789733
19563.0514312
18476.3306046
19560.4291662
19560.7179737
18402.4261306
18436.7156926
19559.6537224
18431.3742109
19561.3334058
19561.8974018
19563.5386748
18413.2967194
18431.386062
19563.3944142
18431.5664669
19562.2588709
19562.715362
19563.6559322
18457.1690363
18475.6349775
19562.1442659
19564.075794
18452.1917766
19563.442291
19564.6392346
18442.390494
18474.0263816
19564.3871097
19564.349405
18445.5154252
19561.6324141
19563.7959306
18337.0430309
18405.8074992
19563.5195603
18348.6010867
19561.3765971
19557.7470688
19551.8347224
18203.6432347
18059.233298
19551.9498156
18229.0731866
19557.0572984
19561.9549437
19563.9353757
18412.8825116
18339.889745
19564.0131583
19561.4836692
18346.8854005
19558.2996084
19552.253757
18059.6679581
18202.9361169
19552.7940519
19557.3906737
18225.1380757
19541.5249102
19546.605016
17704.1302032
17879.037182
19546.5207898
17723.2638254
19541.0365171
19537.8042192
19534.7801457
17576.3572753
17510.4057573
19535.5323144
17610.3338927
19537.0111114
19542.8646722
19547.4994088
17885.3290249
17756.7043426
19547.5547798
19543.0487421
17742.3766149
19539.433843
19537.1971668
17534.2123599
17639.4068001
19536.6124206
19539.6601953
17634.4393661
19530.5027715
19533.4005699
17506.0677281
17528.6235289
19533.717498
17525.025165
19530.1918501
19523.5233604
19528.0137568
17303.3489329
17369.3603977
17336.1640311
19528.0063731
19523.141706
19531.0718194
19535.3537
17549.2986391
17558.5042262
19534.4195975
19531.6890712
17541.0167269
19524.4363266
19528.6178144
17324.2083753
17383.4399601
19525.2739185
17357.3384771
19528.1705539
19557.0904475
19557.0661073
18393.0263145
18502.684126
19554.5524057
18530.0078753
19557.8298521
19555.0393793
19549.8442699
18394.6925333
18438.8348962
19551.9883455
19552.7115514
18482.0446366
19558.3220761
19560.1163401
18544.3770561
18569.8343319
19559.8481348
18573.2206876
19558.6013788
19557.0209973
19556.8789283
18499.8777905
18571.8943008
19555.2418026
19558.6348441
18532.8421157
19551.6281475
19548.6675392
18355.0657187
18446.8047805
19548.9979628
19551.8914457
18433.579355
19551.455499
19550.8970046
18356.8644296
18392.0946755
19549.8126233
19552.3072479
18398.685869
19553.7516281
19556.0633542
18498.8742488
18514.2022151
19554.2777802
19555.713908
18479.2191578
19553.3316781
19555.2381628
18439.696157
18504.8186726
19553.7498057
19555.2327723
18447.2822997
19554.7680656
19552.0453218
18337.929811
18390.0291465
19553.3160563
19553.4820888
18384.3427992
19555.8169794
19555.9731883
18343.8506209
18386.9579581
19554.7903854
19556.8831163
18384.2453088
19555.7279706
19555.9147446
18433.5271735
18465.4332603
19554.625991
19556.806623
18423.3602174
19556.8889907
19558.4741335
18421.55631
18457.4063608
19557.8885087
19557.5999607
18419.5861102
19558.6077639
19557.0790914
18369.0510815
18389.962883
19557.7918425
19557.8650257
18394.2666235
19559.2364709
19558.6675728
18382.069716
18418.0836528
19558.2646794
19559.8617897
18402.898338
19559.4401308
19559.3542573
18422.7792507
18458.4321543
19558.7376877
19560.0408695
18425.5248463
19560.0277896
19561.1097488
18444.0494724
18463.681442
19560.4321902
19560.6052666
18431.476778
19561.0679529
19559.3949947
18435.7390085
18434.5608065
19560.2171022
19560.4161229
18450.0467735
19561.6265662
19561.7285346
18458.5645627
18488.5401396
19560.9871462
19562.1424723
18467.0917896
19561.2736747
19561.6445911
18460.6881873
18496.3067253
19560.7483923
19562.3978169
18477.5019444
19561.7570132
19563.7053033
18504.8598082
18511.3376125
19562.4542675
19563.2471169
18491.0543507
19562.8710398
19562.3886385
18497.1057327
18504.6792461
19562.8996729
19562.6901689
18507.8687421
19563.2417726
19563.4734367
18501.00121
18505.4028595
19563.2169638
19563.8091431
18507.9831044
19563.2283625
19563.7748457
18516.3157091
18505.6977522
19563.0585561
19563.780861
18518.3055606
19563.4865263
19563.8749964
18510.3556978
18496.3451299
19563.7523866
19563.7236448
18515.7790779
19564.6624228
19563.7231149
18499.0479163
18503.7958198
19564.226656
19564.2975386
18498.5945589
19565.0766468
19564.7523299
18491.0457239
18478.9540288
19564.5522057
19565.1218202
18494.1520412
19564.7394835
19564.1898931
18507.3910104
18484.1383624
19564.1295678
19564.8199699
18501.3382334
19565.0828716
19565.2605794
18475.3618619
18479.4321134
19565.0349156
19565.34087
18494.1084482
19561.2173782
19563.8392693
18334.8748303
18429.6454094
19561.2732995
19563.9240836
18335.8086293
19557.135579
19552.1335563
18195.8132166
18034.7120472
19557.2272581
19551.7193248
18197.476089
19560.7892724
19563.9432511
18422.2511594
18313.3901332
19563.7523454
19560.8867698
18328.7145368
19556.4899293
19550.9663773
18027.8249867
18172.3199168
19551.0560304
19556.4204348
18190.487171
19543.0676103
19547.4623644
17761.93814
17875.979937
19543.5129563
19547.0575044
17747.8412737
19540.1362072
19537.8323461
17650.4456526
17556.6617146
19540.5349746
19537.8007414
17648.9414193
19542.256292
19545.856326
17868.4193461
17722.5690557
19546.2970613
19541.4244443
17738.6009241
19539.3761729
19535.7841762
17549.716436
17605.2195446
19537.0119825
19538.339479
17638.7486619
19531.4041353
19535.5397976
17567.1834887
17562.496923
19531.4235868
19535.3594149
17559.7115853
19524.485067
19527.2973792
17394.7717654
17270.7395542
19524.206116
17403.0147419
19527.2950937
19530.9089566
19534.1171768
17557.0366334
17535.5088075
19534.6782155
19530.5862991
17553.8764463
19524.2344056
19526.9044203
17270.0047578
17369.0144669
19523.5978457
17395.1651793
19527.1657138
19560.7022198
19560.0887197
18596.6396578
18618.3779696
19560.3288267
18628.8699206
19560.749424
19560.4162131
19558.2966002
18595.9129294
18601.4379884
19559.615725
19559.8543447
18615.3754319
19561.3248924
19561.4676358
18618.7244805
18620.0793334
19561.7846447
18631.3870315
19561.327518
19561.2821425
19561.3853001
18611.1115891
18619.8389326
19561.0145877
19561.6985169
18622.0117152
19558.6950521
19557.5910464
18548.0273937
18594.9769598
19557.2483427
19559.1957964
18581.0971322
19558.5582676
19556.9028663
18539.098388
18559.9645686
19556.8527759
19558.706896
18567.3132438
19560.391549
19561.3760803
18609.0180843
18611.9887004
19560.6024778
19561.4950062
18602.6317164
19560.4439925
19561.768445
18588.414587
18610.8721628
19560.6838638
19561.5556911
18593.9215545
19559.5422056
19557.530163
18504.7509229
18551.4327713
19558.2433237
19559.0109344
18539.872102
19560.1282504
19559.7003892
18496.4842006
18524.533045
19558.890426
19560.7916647
18529.8480224
19561.3766108
19562.0199547
18582.6985849
18596.5296795
19560.9524421
19562.4268864
18574.8970233
19561.7761055
19563.1274561
18553.8079823
18587.5238435
19562.2183564
19562.8527255
18563.7829931
19561.8550719
19560.467501
18492.2860845
18520.7269296
19561.1981637
19561.3549508
18520.6146471
19562.3671379
19562.2435645
18494.6164791
18523.1494546
19561.7813045
19562.8948151
18521.1185748
19562.8205216
19563.3439709
18547.5224328
18552.9943749
19562.5526302