/*--------------------------------*- C++ -*----------------------------------*\
| =========                 |                                                 |
| \\      /  F ield         | OpenFOAM: The Open Source CFD Toolbox           |
|  \\    /   O peration     | Version:  v1906                                 |
|   \\  /    A nd           | Web:      www.OpenFOAM.com                      |
|    \\/     M anipulation  |                                                 |
\*---------------------------------------------------------------------------*/
FoamFile
{
    version     2.0;
    format      ascii;
    class       volVectorField;
    location    "1.6";
    object      force.turbine;
}
// * * * * * * * * * * * * * * * * * * * * * * * * * * * * * * * * * * * * * //

dimensions      [1 -2 -2 0 0 0 0];


internalField   nonuniform List<vector> 
28582
(
(0 0 0)
(0 0 0)
(0 0 0)
(0 0 0)
(0 0 0)
(0 0 0)
(0 0 0)
(0 0 0)
(0 0 0)
(0 0 0)
(0 0 0)
(0 0 0)
(0 0 0)
(0 0 0)
(0 0 0)
(0 0 0)
(0 0 0)
(0 0 0)
(0 0 0)
(0 0 0)
(0 0 0)
(0 0 0)
(0 0 0)
(0 0 0)
(0 0 0)
(0 0 0)
(0 0 0)
(0 0 0)
(0 0 0)
(0 0 0)
(0 0 0)
(0 0 0)
(0 0 0)
(0 0 0)
(0 0 0)
(0 0 0)
(0 0 0)
(0 0 0)
(0 0 0)
(0 0 0)
(0 0 0)
(0 0 0)
(0 0 0)
(0 0 0)
(0 0 0)
(0 0 0)
(0 0 0)
(0 0 0)
(0 0 0)
(0 0 0)
(0 0 0)
(0 0 0)
(0 0 0)
(0 0 0)
(0 0 0)
(0 0 0)
(0 0 0)
(0 0 0)
(0 0 0)
(0 0 0)
(0 0 0)
(0 0 0)
(0 0 0)
(0 0 0)
(0 0 0)
(0 0 0)
(0 0 0)
(0 0 0)
(0 0 0)
(0 0 0)
(0 0 0)
(0 0 0)
(0 0 0)
(0 0 0)
(0 0 0)
(0 0 0)
(0 0 0)
(0 0 0)
(0 0 0)
(0 0 0)
(0 0 0)
(0 0 0)
(0 0 0)
(0 0 0)
(0 0 0)
(0 0 0)
(0 0 0)
(0 0 0)
(0 0 0)
(0 0 0)
(0 0 0)
(0 0 0)
(0 0 0)
(0 0 0)
(0 0 0)
(0 0 0)
(0 0 0)
(0 0 0)
(0 0 0)
(0 0 0)
(0 0 0)
(0 0 0)
(0 0 0)
(0 0 0)
(0 0 0)
(0 0 0)
(0 0 0)
(0 0 0)
(0 0 0)
(0 0 0)
(0 0 0)
(0 0 0)
(0 0 0)
(0 0 0)
(0 0 0)
(0 0 0)
(0 0 0)
(0 0 0)
(0 0 0)
(0 0 0)
(0 0 0)
(0 0 0)
(0 0 0)
(0 0 0)
(0 0 0)
(0 0 0)
(0 0 0)
(0 0 0)
(0 0 0)
(0 0 0)
(0 0 0)
(0 0 0)
(0 0 0)
(0 0 0)
(0 0 0)
(0 0 0)
(0 0 0)
(0 0 0)
(0 0 0)
(0 0 0)
(0 0 0)
(0 0 0)
(0 0 0)
(0 0 0)
(0 0 0)
(0 0 0)
(0 0 0)
(0 0 0)
(0 0 0)
(0 0 0)
(0 0 0)
(0 0 0)
(0 0 0)
(0 0 0)
(0 0 0)
(0 0 0)
(0 0 0)
(0 0 0)
(0 0 0)
(0 0 0)
(0 0 0)
(0 0 0)
(0 0 0)
(0 0 0)
(0 0 0)
(0 0 0)
(0 0 0)
(0 0 0)
(0 0 0)
(0 0 0)
(0 0 0)
(0 0 0)
(0 0 0)
(0 0 0)
(0 0 0)
(0 0 0)
(0 0 0)
(0 0 0)
(0 0 0)
(0 0 0)
(0 0 0)
(0 0 0)
(0 0 0)
(0 0 0)
(0 0 0)
(0 0 0)
(0 0 0)
(0 0 0)
(0 0 0)
(0 0 0)
(0 0 0)
(0 0 0)
(0 0 0)
(0 0 0)
(0 0 0)
(0 0 0)
(0 0 0)
(0 0 0)
(0 0 0)
(0 0 0)
(0 0 0)
(0 0 0)
(0 0 0)
(0 0 0)
(0 0 0)
(0 0 0)
(0 0 0)
(0 0 0)
(0 0 0)
(0 0 0)
(0 0 0)
(0 0 0)
(0 0 0)
(0 0 0)
(0 0 0)
(0 0 0)
(0 0 0)
(-0.000647077835081 1.07660167414e-05 0)
(0 0 0)
(0 0 0)
(0 0 0)
(0 0 0)
(-2.70849680721e-05 1.78335228313e-07 0)
(0 0 0)
(-2.77673609246e-06 1.29727724553e-08 0)
(0 0 0)
(0 0 0)
(0 0 0)
(0 0 0)
(0 0 0)
(0 0 0)
(0 0 0)
(0 0 0)
(0 0 0)
(0 0 0)
(0 0 0)
(0 0 0)
(-0.0172635714265 0.000526411355693 0)
(0 0 0)
(0 0 0)
(0 0 0)
(-0.0335437149921 0.000705232566711 0)
(0 0 0)
(0 0 0)
(-0.0305947537452 0.000915776472509 0)
(-0.137116082868 0.00410422269577 0)
(-0.0911815600674 0.00191702695 0)
(-1.65188157625 -0.157563065514 0.0434065621525)
(-0.00678988475386 5.77490119948e-05 0)
(-0.0897511272431 0.00188695312507 0)
(0 0 0)
(0 0 0)
(0 0 0)
(0 0 0)
(0 0 0)
(-0.0172635896901 0.000526411912597 0)
(0 0 0)
(0 0 0)
(0 0 0)
(-0.0329163450221 0.000692042562733 0)
(0 0 0)
(0 0 0)
(0 0 0)
(0 0 0)
(0 0 0)
(0 0 0)
(0 0 0)
(0 0 0)
(-1.57623131369e-05 1.16582538695e-07 0)
(0 0 0)
(-9.55996237778e-06 7.07081932804e-08 0)
(-0.000132563245604 1.64072680054e-06 0)
(-0.00059410728348 7.35322779679e-06 0)
(-8.0403718045e-05 9.95151668619e-07 0)
(-0.000360344912574 4.45996590388e-06 0)
(0 0 0)
(0 0 0)
(-6.75561003683e-05 5.4159079356e-07 0)
(0 0 0)
(0 0 0)
(0 0 0)
(0 0 0)
(0 0 0)
(0 0 0)
(-0.00325245055392 5.41139492277e-05 0)
(-0.000146631007488 1.96229107226e-06 0)
(-0.00078279526285 1.30240698228e-05 0)
(-2.88303831511e-05 3.11628452027e-07 0)
(-0.000132578132199 1.64091105098e-06 0)
(-3.79949498327e-06 1.7751050954e-08 0)
(-2.89381911832e-05 3.12793752188e-07 0)
(0 0 0)
(0 0 0)
(0 0 0)
(0 0 0)
(0 0 0)
(-8.95434270257e-05 7.17861087846e-07 0)
(0 0 0)
(0 0 0)
(0 0 0)
(0 0 0)
(0 0 0)
(0 0 0)
(0 0 0)
(0 0 0)
(0 0 0)
(0 0 0)
(0 0 0)
(0 0 0)
(0 0 0)
(0 0 0)
(0 0 0)
(0 0 0)
(0 0 0)
(0 0 0)
(0 0 0)
(0 0 0)
(-0.00560194880639 4.94847085602e-05 0)
(0 0 0)
(0 0 0)
(0 0 0)
(0 0 0)
(0 0 0)
(-0.00531724092901 4.52239502318e-05 0)
(0 0 0)
(0 0 0)
(0 0 0)
(0 0 0)
(0 0 0)
(0 0 0)
(0 0 0)
(0 0 0)
(0 0 0)
(0 0 0)
(0 0 0)
(0 0 0)
(0 0 0)
(0 0 0)
(0 0 0)
(0 0 0)
(0 0 0)
(0 0 0)
(0 0 0)
(0 0 0)
(0 0 0)
(0 0 0)
(-0.0389469010714 0.000955187912917 0)
(-0.00985828098116 0.000155248841844 0)
(-0.016232184185 0.000255625478736 0)
(-0.0110332807516 0.000193109005609 0)
(-0.0208467439921 0.000511274513173 0)
(0 0 0)
(0 0 0)
(0 0 0)
(0 0 0)
(0 0 0)
(0 0 0)
(0 0 0)
(0 0 0)
(0 0 0)
(0 0 0)
(-0.00599673822908 5.10031790634e-05 0)
(0 0 0)
(-0.00859281057434 0.000150394895476 0)
(0 0 0)
(0 0 0)
(-0.193065149982 -0.00764372858619 0.00273149864709)
(-0.244924262653 -0.0272673192973 0.00738732781142)
(-0.350708346966 -0.023116792867 0.00685255607006)
(-0.0484415766392 0.00101844943045 0)
(-1.03588235867 -0.172518447994 0.044153549347)
(-0.0566668417478 0.00138977635734 0)
(-0.116606452983 0.00245156710136 0)
(-0.549617157414 -0.0493667315973 0.0139720409352)
(-4.580784735 -0.799333212941 0.203506621286)
(-0.922552854811 -0.0929628223432 0.0253481998489)
(-0.524935758724 -0.00317446829843 0.00318678347901)
(-2.69626901484 -0.483878603511 0.122755573724)
(-0.273917817633 0.000598766012895 0.00115294625368)
(-0.997894387265 -0.0870093579035 0.0248151238423)
(-0.066122396286 0.00161771965698 0)
(-0.00973695097754 0.000170420110143 0)
(-0.0228167431539 0.000479705671903 0)
(-0.0227667926812 0.000478655499014 0)
(-0.02676770403 0.000656488363454 0)
(-0.0267678760377 0.000656492582011 0)
(-0.0549433101022 0.00115514371667 0)
(-0.139978551963 0.00342464985822 0)
(-0.109019895049 0.0026672298212 0)
(-0.218189395947 0.00459204639711 0)
(-0.0477316323249 0.00100352336006 0)
(-0.0566677550021 0.00138979875526 0)
(-0.116216793762 0.00244337479552 0)
(-0.261522152045 0.00639827879605 0)
(0 0 0)
(0 0 0)
(0 0 0)
(0 0 0)
(0 0 0)
(0 0 0)
(0 0 0)
(0 0 0)
(0 0 0)
(0 0 0)
(0 0 0)
(0 0 0)
(0 0 0)
(0 0 0)
(0 0 0)
(0 0 0)
(0 0 0)
(0 0 0)
(0 0 0)
(0 0 0)
(0 0 0)
(0 0 0)
(0 0 0)
(-0.00594835750801 5.05916936048e-05 0)
(0 0 0)
(-0.00859264431059 0.000150391985459 0)
(0 0 0)
(0 0 0)
(0 0 0)
(-0.0389469925217 0.000955190155771 0)
(-0.0158945364635 0.000250308180739 0)
(-0.0096633410166 0.000152178914766 0)
(-0.0208466005074 0.000511270994157 0)
(0 0 0)
(-0.0110332062629 0.000193107701876 0)
(0 0 0)
(0 0 0)
(0 0 0)
(0 0 0)
(0 0 0)
(0 0 0)
(0 0 0)
(0 0 0)
(0 0 0)
(0 0 0)
(0 0 0)
(0 0 0)
(0 0 0)
(0 0 0)
(0 0 0)
(0 0 0)
(0 0 0)
(0 0 0)
(0 0 0)
(0 0 0)
(0 0 0)
(0 0 0)
(0 0 0)
(0 0 0)
(0 0 0)
(0 0 0)
(0 0 0)
(0 0 0)
(0 0 0)
(0 0 0)
(0 0 0)
(0 0 0)
(0 0 0)
(0 0 0)
(0 0 0)
(0 0 0)
(-0.015752577338 0.000353713741779 0)
(0 0 0)
(0 0 0)
(0 0 0)
(0 0 0)
(0 0 0)
(0 0 0)
(0 0 0)
(-0.00351502341949 7.89275341725e-05 0)
(0 0 0)
(0 0 0)
(0 0 0)
(0 0 0)
(0 0 0)
(0 0 0)
(0 0 0)
(0 0 0)
(0 0 0)
(0 0 0)
(0 0 0)
(0 0 0)
(0 0 0)
(0 0 0)
(0 0 0)
(0 0 0)
(0 0 0)
(0 0 0)
(0 0 0)
(0 0 0)
(0 0 0)
(0 0 0)
(0 0 0)
(0 0 0)
(0 0 0)
(0 0 0)
(0 0 0)
(-0.339315184667 0.0103365775663 0)
(-0.00808796381709 0.000181609896827 0)
(0 0 0)
(0 0 0)
(0 0 0)
(0 0 0)
(0 0 0)
(0 0 0)
(-0.0745003820313 0.00229123121446 0)
(0 0 0)
(0 0 0)
(0 0 0)
(0 0 0)
(0 0 0)
(0 0 0)
(0 0 0)
(0 0 0)
(0 0 0)
(0 0 0)
(0 0 0)
(0 0 0)
(0 0 0)
(0 0 0)
(0 0 0)
(0 0 0)
(0 0 0)
(0 0 0)
(0 0 0)
(0 0 0)
(0 0 0)
(0 0 0)
(0 0 0)
(0 0 0)
(0 0 0)
(0 0 0)
(0 0 0)
(-1.6114026819 0.0614718505567 0)
(-0.0458979249003 0.00179410149257 0)
(0 0 0)
(0 0 0)
(0 0 0)
(0 0 0)
(0 0 0)
(0 0 0)
(-0.353510869089 0.0133235581047 0)
(-0.00699448485098 0.000299647360228 0)
(0 0 0)
(0 0 0)
(0 0 0)
(0 0 0)
(0 0 0)
(0 0 0)
(0 0 0)
(0 0 0)
(0 0 0)
(0 0 0)
(0 0 0)
(0 0 0)
(0 0 0)
(0 0 0)
(0 0 0)
(0 0 0)
(0 0 0)
(0 0 0)
(0 0 0)
(0 0 0)
(0 0 0)
(0 0 0)
(0 0 0)
(0 0 0)
(0 0 0)
(0 0 0)
(0 0 0)
(0 0 0)
(0 0 0)
(0 0 0)
(0 0 0)
(0 0 0)
(0 0 0)
(-2.75405006255 0.082435514023 0)
(-0.0831652907824 0.00248934236445 0)
(0 0 0)
(0 0 0)
(0 0 0)
(0 0 0)
(0 0 0)
(0 0 0)
(-2.75405270177 0.0824355930213 0)
(-0.614512394285 0.0183938722775 0)
(-0.0172636101491 0.000526412536444 0)
(0 0 0)
(0 0 0)
(0 0 0)
(0 0 0)
(0 0 0)
(0 0 0)
(-0.0504423345263 0.00150986353943 0)
(-0.083165520963 0.00248934925432 0)
(-0.0172636155123 0.000526412699984 0)
(0 0 0)
(0 0 0)
(0 0 0)
(0 0 0)
(0 0 0)
(0 0 0)
(0 0 0)
(0 0 0)
(0 0 0)
(0 0 0)
(0 0 0)
(0 0 0)
(0 0 0)
(0 0 0)
(0 0 0)
(0 0 0)
(0 0 0)
(0 0 0)
(0 0 0)
(0 0 0)
(0 0 0)
(0 0 0)
(0 0 0)
(0 0 0)
(0 0 0)
(0 0 0)
(-0.0281009925233 0.000468448273606 0)
(-0.000822962460746 1.36923676714e-05 0)
(0 0 0)
(0 0 0)
(0 0 0)
(0 0 0)
(0 0 0)
(0 0 0)
(-0.010462634183 0.000174413872262 0)
(-0.0239689342628 0.000399566167149 0)
(-0.00616367037027 0.000102550535341 0)
(-0.000149245836842 1.19648959562e-06 0)
(0 0 0)
(0 0 0)
(0 0 0)
(0 0 0)
(0 0 0)
(0 0 0)
(-0.000332390065183 4.44821370724e-06 0)
(-0.000714437638714 1.18867424629e-05 0)
(-0.00013804072875 1.10665931603e-06 0)
(0 0 0)
(0 0 0)
(0 0 0)
(0 0 0)
(0 0 0)
(0 0 0)
(0 0 0)
(0 0 0)
(0 0 0)
(0 0 0)
(0 0 0)
(0 0 0)
(0 0 0)
(0 0 0)
(0 0 0)
(0 0 0)
(0 0 0)
(0 0 0)
(0 0 0)
(0 0 0)
(0 0 0)
(0 0 0)
(0 0 0)
(0 0 0)
(0 0 0)
(0 0 0)
(-0.000209452290639 1.70925438351e-06 0)
(-0.000209469680348 1.7093962938e-06 0)
(-2.70950367287e-05 1.78401523247e-07 0)
(0 0 0)
(0 0 0)
(0 0 0)
(0 0 0)
(0 0 0)
(0 0 0)
(0 0 0)
(-2.7086882689e-05 1.78347834701e-07 0)
(-2.70863164031e-05 1.78344106112e-07 0)
(-2.777247125e-06 1.29751599739e-08 0)
(0 0 0)
(0 0 0)
(0 0 0)
(0 0 0)
(0 0 0)
(0 0 0)
(0 0 0)
(0 0 0)
(0 0 0)
(0 0 0)
(0 0 0)
(0 0 0)
(0 0 0)
(0 0 0)
(0 0 0)
(0 0 0)
(0 0 0)
(0 0 0)
(0 0 0)
(0 0 0)
(0 0 0)
(0 0 0)
(0 0 0)
(0 0 0)
(0 0 0)
(0 0 0)
(0 0 0)
(0 0 0)
(0 0 0)
(0 0 0)
(0 0 0)
(0 0 0)
(0 0 0)
(0 0 0)
(0 0 0)
(0 0 0)
(-0.00351487510866 7.89242039505e-05 0)
(-0.00955480741821 0.00021454690311 0)
(-0.00213195853651 4.78717237877e-05 0)
(-0.0911235165583 0.00243368886083 0)
(-0.0186095799421 0.000417865852237 0)
(-0.0552702701592 0.00147613531503 0)
(-0.0112871373927 0.00025344523093 0)
(0 0 0)
(0 0 0)
(0 0 0)
(-0.00251858410282 5.65531460586e-05 0)
(0 0 0)
(0 0 0)
(0 0 0)
(0 0 0)
(0 0 0)
(0 0 0)
(-0.0186101263429 0.000417878121307 0)
(-0.00415243215156 9.32401271422e-05 0)
(-0.00415247089292 9.3240997054e-05 0)
(0 0 0)
(0 0 0)
(0 0 0)
(0 0 0)
(0 0 0)
(0 0 0)
(0 0 0)
(0 0 0)
(-0.0745027144389 0.00229130294677 0)
(-0.205797299412 0.00626921471371 0)
(-0.0451880123406 0.00138974031503 0)
(-0.849359538868 0.0295253260387 0)
(-0.18723174879 0.00657768904579 0)
(-0.515156307723 0.017907796699 0)
(-0.113562432897 0.00398959244736 0)
(0 0 0)
(-0.00490558799043 0.000110151745107 0)
(0 0 0)
(-0.0241265179721 0.000874981923993 0)
(0 0 0)
(-0.0129121999717 0.000458385559977 0)
(0 0 0)
(-0.0157399210003 0.000474125239966 0)
(-0.0157404082426 0.000474139916907 0)
(-0.0029753900621 6.68104227986e-05 0)
(-0.187223518402 0.00657739990183 0)
(-0.0397772989352 0.00144257938895 0)
(-0.0397777085859 0.0014425942455 0)
(-0.00783161521883 0.000278023832924 0)
(0 0 0)
(0 0 0)
(0 0 0)
(-0.00351502489564 7.89275673185e-05 0)
(0 0 0)
(0 0 0)
(0 0 0)
(-0.353511983181 0.013323600094 0)
(-0.960913695265 0.0362161126346 0)
(-0.214417202997 0.00808122270792 0)
(-2.37907608411 0.0864146052215 0)
(-0.524787611973 0.0188884727366 0)
(-1.42651971649 0.0513441593483 0)
(-0.318300369611 0.0114564591775 0)
(0 0 0)
(-0.0278384793393 0.00108817680629 0)
(0 0 0)
(-0.071022909274 0.00255629945313 0)
(0 0 0)
(-0.0430775473171 0.00155047310473 0)
(0 0 0)
(-0.0788801798014 0.00297293450015 0)
(-0.078880566013 0.00297294905618 0)
(-0.0148845837465 0.000634892385212 0)
(-0.524789528277 0.0188885417094 0)
(-0.117096446754 0.00421460604559 0)
(-0.117096776879 0.00421461792764 0)
(-0.0261278866242 0.00094041067835 0)
(0 0 0)
(0 0 0)
(0 0 0)
(-0.0142002970605 0.00056269200209 0)
(0 0 0)
(0 0 0)
(0 0 0)
(-7.68709383985 0.237114763918 0)
(-4.56779664662 0.137675619011 0)
(-4.7515952913 0.100002779435 0)
(-2.24532860332 0.0472555188964 0)
(-0.614512714769 0.0183938818704 0)
(-1.67040237352 0.0499992647768 0)
(-0.372719250677 0.0111564068619 0)
(-2.90262721351 0.0610891229615 0)
(-0.30511344402 0.00642146280867 0)
(-1.37313708785 0.0288992468659 0)
(-0.143985142756 0.0030303326757 0)
(0 0 0)
(-0.0504422462899 0.00150986089829 0)
(0 0 0)
(-0.111128785093 0.00233640305986 0)
(0 0 0)
(-0.0524222085531 0.00110213936349 0)
(0 0 0)
(0 0 0)
(0 0 0)
(0 0 0)
(0 0 0)
(0 0 0)
(0 0 0)
(0 0 0)
(0 0 0)
(0 0 0)
(0 0 0)
(0 0 0)
(0 0 0)
(0 0 0)
(0 0 0)
(0 0 0)
(0 0 0)
(0 0 0)
(0 0 0)
(0 0 0)
(0 0 0)
(0 0 0)
(0 0 0)
(0 0 0)
(0 0 0)
(0 0 0)
(0 0 0)
(0 0 0)
(0 0 0)
(0 0 0)
(0 0 0)
(0 0 0)
(0 0 0)
(0 0 0)
(0 0 0)
(0 0 0)
(0 0 0)
(0 0 0)
(0 0 0)
(0 0 0)
(0 0 0)
(0 0 0)
(0 0 0)
(-0.372722157911 0.0111564938826 0)
(-0.614513231625 0.0183938973412 0)
(-2.21706109786 -0.145692303472 0.0434119990128)
(-2.92343906954 0.0615271323713 0)
(-0.150428368577 0.00316593776223 0)
(-0.308789645764 0.00649883269597 0)
(-1.67041665419 0.0499996922328 0)
(-0.614511479453 0.0183938448943 0)
(-0.372721167975 0.0111564642514 0)
(-2.9467945241 0.0620186747328 0)
(-1.36313683541 0.0286887800694 0)
(-0.311065787237 0.00654673670709 0)
(-0.144138566124 0.00303356164667 0)
(-0.137116512567 0.00410423555774 0)
(-0.137116561615 0.00410423702585 0)
(-0.030594864162 0.000915779777554 0)
(-0.833402857733 0.0175399201853 0)
(-0.0860465609449 0.00180906727374 0)
(-0.0867364984575 0.00182357271546 0)
(-0.00648352473722 5.51433730308e-05 0)
(0 0 0)
(0 0 0)
(0 0 0)
(-0.0318058694164 0.000668695609007 0)
(0 0 0)
(0 0 0)
(0 0 0)
(0 0 0)
(0 0 0)
(0 0 0)
(0 0 0)
(0 0 0)
(0 0 0)
(0 0 0)
(0 0 0)
(0 0 0)
(0 0 0)
(0 0 0)
(0 0 0)
(0 0 0)
(0 0 0)
(0 0 0)
(0 0 0)
(0 0 0)
(0 0 0)
(0 0 0)
(0 0 0)
(0 0 0)
(0 0 0)
(0 0 0)
(0 0 0)
(0 0 0)
(0 0 0)
(0 0 0)
(0 0 0)
(0 0 0)
(0 0 0)
(0 0 0)
(0 0 0)
(0 0 0)
(0 0 0)
(0 0 0)
(0 0 0)
(0 0 0)
(0 0 0)
(0 0 0)
(0 0 0)
(0 0 0)
(0 0 0)
(-0.0831656348574 0.00248935266346 0)
(0 0 0)
(0 0 0)
(-0.0543663363086 0.00114301325618 0)
(-0.11180891685 0.00235070234259 0)
(0 0 0)
(0 0 0)
(-0.0504425181214 0.00150986903488 0)
(0 0 0)
(0 0 0)
(-0.112677867979 0.00236897141731 0)
(-0.0522743246011 0.00109903020939 0)
(0 0 0)
(0 0 0)
(0 0 0)
(0 0 0)
(0 0 0)
(-0.0319296425579 0.0006712978506 0)
(0 0 0)
(0 0 0)
(0 0 0)
(0 0 0)
(0 0 0)
(0 0 0)
(0 0 0)
(0 0 0)
(0 0 0)
(0 0 0)
(0 0 0)
(0 0 0)
(0 0 0)
(0 0 0)
(0 0 0)
(0 0 0)
(0 0 0)
(0 0 0)
(0 0 0)
(0 0 0)
(0 0 0)
(0 0 0)
(0 0 0)
(0 0 0)
(0 0 0)
(0 0 0)
(0 0 0)
(0 0 0)
(0 0 0)
(0 0 0)
(0 0 0)
(0 0 0)
(0 0 0)
(0 0 0)
(0 0 0)
(0 0 0)
(0 0 0)
(0 0 0)
(0 0 0)
(0 0 0)
(0 0 0)
(0 0 0)
(0 0 0)
(0 0 0)
(0 0 0)
(0 0 0)
(0 0 0)
(0 0 0)
(0 0 0)
(0 0 0)
(0 0 0)
(0 0 0)
(0 0 0)
(0 0 0)
(0 0 0)
(0 0 0)
(0 0 0)
(0 0 0)
(0 0 0)
(0 0 0)
(0 0 0)
(0 0 0)
(0 0 0)
(0 0 0)
(0 0 0)
(0 0 0)
(0 0 0)
(0 0 0)
(0 0 0)
(0 0 0)
(0 0 0)
(0 0 0)
(0 0 0)
(0 0 0)
(0 0 0)
(0 0 0)
(0 0 0)
(0 0 0)
(0 0 0)
(0 0 0)
(0 0 0)
(0 0 0)
(0 0 0)
(0 0 0)
(0 0 0)
(0 0 0)
(0 0 0)
(0 0 0)
(0 0 0)
(0 0 0)
(0 0 0)
(0 0 0)
(0 0 0)
(0 0 0)
(0 0 0)
(0 0 0)
(0 0 0)
(0 0 0)
(0 0 0)
(0 0 0)
(0 0 0)
(0 0 0)
(0 0 0)
(0 0 0)
(0 0 0)
(0 0 0)
(0 0 0)
(0 0 0)
(0 0 0)
(0 0 0)
(0 0 0)
(0 0 0)
(0 0 0)
(0 0 0)
(0 0 0)
(0 0 0)
(0 0 0)
(0 0 0)
(0 0 0)
(0 0 0)
(0 0 0)
(0 0 0)
(0 0 0)
(0 0 0)
(0 0 0)
(0 0 0)
(0 0 0)
(0 0 0)
(0 0 0)
(0 0 0)
(0 0 0)
(0 0 0)
(0 0 0)
(0 0 0)
(0 0 0)
(0 0 0)
(0 0 0)
(0 0 0)
(0 0 0)
(0 0 0)
(0 0 0)
(0 0 0)
(0 0 0)
(0 0 0)
(0 0 0)
(0 0 0)
(0 0 0)
(0 0 0)
(0 0 0)
(0 0 0)
(0 0 0)
(0 0 0)
(0 0 0)
(0 0 0)
(0 0 0)
(0 0 0)
(0 0 0)
(0 0 0)
(0 0 0)
(0 0 0)
(0 0 0)
(0 0 0)
(0 0 0)
(0 0 0)
(0 0 0)
(0 0 0)
(0 0 0)
(0 0 0)
(0 0 0)
(0 0 0)
(0 0 0)
(0 0 0)
(0 0 0)
(-0.00162036847044 2.00767561026e-05 0)
(-0.002678514331 3.3187438488e-05 0)
(-0.000981013953707 1.21419468739e-05 0)
(-0.00161754285217 2.00417460108e-05 0)
(-0.0715619087455 0.00119294905972 0)
(-0.0435796120968 0.000726479466313 0)
(-0.00267100240263 3.30943638839e-05 0)
(-0.00162617283717 2.01486736061e-05 0)
(-0.00161952411546 2.00662943407e-05 0)
(-0.000984183132217 1.21811715934e-05 0)
(-0.00631999605416 0.00010515146654 0)
(-0.0168855365051 0.000281484734682 0)
(-0.00385527259621 6.41436424849e-05 0)
(-0.000598807133168 7.41139753537e-06 0)
(-0.000132937510049 1.64535904762e-06 0)
(-0.000366794698425 4.53979449027e-06 0)
(-8.20892384702e-05 1.01601324697e-06 0)
(0 0 0)
(-0.000485432836565 6.49631028041e-06 0)
(0 0 0)
(-1.57632716967e-05 1.16589628475e-07 0)
(0 0 0)
(-9.64681121258e-06 7.13505518959e-08 0)
(0 0 0)
(0 0 0)
(0 0 0)
(0 0 0)
(0 0 0)
(0 0 0)
(0 0 0)
(0 0 0)
(0 0 0)
(0 0 0)
(0 0 0)
(0 0 0)
(0 0 0)
(0 0 0)
(0 0 0)
(0 0 0)
(0 0 0)
(0 0 0)
(0 0 0)
(0 0 0)
(0 0 0)
(0 0 0)
(0 0 0)
(0 0 0)
(0 0 0)
(0 0 0)
(0 0 0)
(0 0 0)
(0 0 0)
(0 0 0)
(0 0 0)
(0 0 0)
(0 0 0)
(0 0 0)
(0 0 0)
(0 0 0)
(0 0 0)
(0 0 0)
(0 0 0)
(0 0 0)
(0 0 0)
(0 0 0)
(0 0 0)
(-0.020452242784 0.000340942328483 0)
(-0.00245381844267 4.08263874944e-05 0)
(-0.00469966434922 7.81925485922e-05 0)
(-0.000361312788229 4.47194523887e-06 0)
(-0.000594732342333 7.36096411018e-06 0)
(-8.13740046892e-05 1.00716084427e-06 0)
(-0.000133607636084 1.65365315464e-06 0)
(-0.0159185800096 0.000265365407203 0)
(-0.00527724800825 8.78023281358e-05 0)
(-0.00350645404527 5.83400340849e-05 0)
(-0.000594994103936 7.36420391678e-06 0)
(-0.000361779819171 4.47772565093e-06 0)
(-0.000133008428109 1.64623679591e-06 0)
(-8.04387863959e-05 9.95585707352e-07 0)
(-0.00138596250266 2.30595064421e-05 0)
(-0.00133160144268 2.21550525261e-05 0)
(-0.000281880637995 3.77227074174e-06 0)
(-0.000133898478555 1.65725289327e-06 0)
(-2.94381638999e-05 3.1819797186e-07 0)
(-2.88965643214e-05 3.12343806226e-07 0)
(-3.79776405949e-06 1.77429641645e-08 0)
(0 0 0)
(0 0 0)
(0 0 0)
(0 0 0)
(0 0 0)
(0 0 0)
(0 0 0)
(0 0 0)
(0 0 0)
(0 0 0)
(0 0 0)
(0 0 0)
(0 0 0)
(0 0 0)
(0 0 0)
(0 0 0)
(0 0 0)
(0 0 0)
(0 0 0)
(0 0 0)
(0 0 0)
(0 0 0)
(0 0 0)
(0 0 0)
(0 0 0)
(0 0 0)
(0 0 0)
(0 0 0)
(0 0 0)
(0 0 0)
(0 0 0)
(0 0 0)
(0 0 0)
(0 0 0)
(0 0 0)
(0 0 0)
(0 0 0)
(0 0 0)
(0 0 0)
(0 0 0)
(0 0 0)
(0 0 0)
(0 0 0)
(0 0 0)
(0 0 0)
(0 0 0)
(0 0 0)
(0 0 0)
(0 0 0)
(-0.000648247213449 1.07854727425e-05 0)
(0 0 0)
(0 0 0)
(-9.7897692655e-06 7.24079102031e-08 0)
(-1.60489199253e-05 1.18702363793e-07 0)
(0 0 0)
(0 0 0)
(-0.000431947188837 5.78053801076e-06 0)
(0 0 0)
(0 0 0)
(-1.58032523559e-05 1.1688533677e-07 0)
(-9.56392502191e-06 7.07375021203e-08 0)
(0 0 0)
(0 0 0)
(0 0 0)
(0 0 0)
(0 0 0)
(0 0 0)
(0 0 0)
(0 0 0)
(0 0 0)
(0 0 0)
(0 0 0)
(0 0 0)
(0 0 0)
(0 0 0)
(0 0 0)
(0 0 0)
(0 0 0)
(0 0 0)
(0 0 0)
(0 0 0)
(0 0 0)
(0 0 0)
(0 0 0)
(0 0 0)
(0 0 0)
(0 0 0)
(0 0 0)
(0 0 0)
(0 0 0)
(0 0 0)
(0 0 0)
(0 0 0)
(0 0 0)
(0 0 0)
(0 0 0)
(0 0 0)
(0 0 0)
(0 0 0)
(0 0 0)
(0 0 0)
(0 0 0)
(0 0 0)
(0 0 0)
(0 0 0)
(0 0 0)
(0 0 0)
(0 0 0)
(0 0 0)
(0 0 0)
(0 0 0)
(0 0 0)
(0 0 0)
(0 0 0)
(0 0 0)
(0 0 0)
(0 0 0)
(0 0 0)
(0 0 0)
(0 0 0)
(0 0 0)
(0 0 0)
(0 0 0)
(0 0 0)
(0 0 0)
(0 0 0)
(0 0 0)
(0 0 0)
(0 0 0)
(0 0 0)
(0 0 0)
(0 0 0)
(0 0 0)
(0 0 0)
(0 0 0)
(0 0 0)
(0 0 0)
(0 0 0)
(0 0 0)
(0 0 0)
(0 0 0)
(0 0 0)
(0 0 0)
(0 0 0)
(0 0 0)
(0 0 0)
(0 0 0)
(0 0 0)
(0 0 0)
(0 0 0)
(0 0 0)
(0 0 0)
(0 0 0)
(0 0 0)
(0 0 0)
(0 0 0)
(0 0 0)
(0 0 0)
(0 0 0)
(0 0 0)
(0 0 0)
(0 0 0)
(0 0 0)
(0 0 0)
(0 0 0)
(0 0 0)
(0 0 0)
(0 0 0)
(0 0 0)
(0 0 0)
(0 0 0)
(0 0 0)
(0 0 0)
(0 0 0)
(0 0 0)
(0 0 0)
(0 0 0)
(0 0 0)
(0 0 0)
(0 0 0)
(0 0 0)
(0 0 0)
(0 0 0)
(0 0 0)
(0 0 0)
(0 0 0)
(0 0 0)
(0 0 0)
(0 0 0)
(0 0 0)
(0 0 0)
(0 0 0)
(0 0 0)
(0 0 0)
(0 0 0)
(0 0 0)
(0 0 0)
(0 0 0)
(0 0 0)
(0 0 0)
(0 0 0)
(0 0 0)
(0 0 0)
(0 0 0)
(0 0 0)
(0 0 0)
(0 0 0)
(0 0 0)
(0 0 0)
(0 0 0)
(0 0 0)
(0 0 0)
(0 0 0)
(0 0 0)
(0 0 0)
(0 0 0)
(0 0 0)
(0 0 0)
(0 0 0)
(0 0 0)
(0 0 0)
(0 0 0)
(0 0 0)
(0 0 0)
(0 0 0)
(0 0 0)
(0 0 0)
(0 0 0)
(0 0 0)
(0 0 0)
(0 0 0)
(0 0 0)
(0 0 0)
(0 0 0)
(0 0 0)
(0 0 0)
(0 0 0)
(0 0 0)
(0 0 0)
(0 0 0)
(0 0 0)
(0 0 0)
(0 0 0)
(0 0 0)
(0 0 0)
(-7.65998942169 0.188115118061 0)
(-5.95171032556 0.145611764351 0)
(-6.88345909607 0.144870301348 0)
(-4.22204608055 0.0888578081829 0)
(-5.25238010924 0.128502277987 0)
(-6.16108053679 0.129667015019 0)
(-8.688408396 0.213736062862 0)
(-5.95171094485 0.145611779503 0)
(-2.8114356738 0.0687832717704 0)
(-3.29331052647 0.069311501927 0)
(-3.25961203988 0.0686022785788 0)
(-4.09050224183 0.10007631688 0)
(-4.0907361437 0.100082039413 0)
(-4.80162332617 0.101055676879 0)
(-1.70502518226 0.0417143495688 0)
(-3.60996370892 0.0883196856276 0)
(-1.55042168376 0.032630404773 0)
(-2.54328464808 0.0535263460185 0)
(-3.18548961676 0.0779347007913 0)
(-1.36370204629 0.0287006755814 0)
(-1.93225921731 0.0472737513129 0)
(-0.80540654547 0.0197047002779 0)
(-0.380480761777 0.00930866456759 0)
(-0.730263659228 0.0153692373121 0)
(-0.269970978001 0.00568184925519 0)
(-0.335748193413 0.00821425844779 0)
(-0.64781969156 0.0136341093374 0)
(-0.912723711094 0.0223302719164 0)
(-1.32794028231 0.0324887665702 0)
(-1.70521781571 0.0417190624488 0)
(-1.98246378969 0.0417232270309 0)
(-0.734633100451 0.0154611972203 0)
(-2.48095809863 0.0606979618062 0)
(-0.912741263415 0.0223307013433 0)
(-1.06214783689 0.0223541209527 0)
(-0.627279366289 0.0153467239281 0)
(-0.179728578684 0.00439715544187 0)
(-0.21021086754 0.00442412910458 0)
(-0.345145261282 0.00726397837377 0)
(-0.261492036374 0.00639754200011 0)
(-0.431148666397 0.0105482818514 0)
(-0.504408057051 0.0106158468013 0)
(-0.0389421035593 0.000955070252064 0)
(-0.139975114076 0.00342456574849 0)
(-0.0360962411124 0.000758897598979 0)
(-0.0977012721472 0.00205409922376 0)
(-0.123516180791 0.0030218891759 0)
(-0.0317993524195 0.000668558593818 0)
(-0.0441306494494 0.0010823213602 0)
(-0.00973609507706 0.000170405129822 0)
(0 0 0)
(-0.00937360018998 0.000147616057625 0)
(0 0 0)
(0 0 0)
(-0.0064973387988 5.52608637448e-05 0)
(-0.0110328721002 0.000193101853224 0)
(-0.0303287129924 0.00074382349475 0)
(-0.0661190563293 0.00161763794316 0)
(-0.0759998734232 0.00159784286912 0)
(-0.0154497720479 0.000243304002165 0)
(-0.0961980262991 0.00235353597038 0)
(-0.0208456268322 0.000511247114393 0)
(-0.0247221634305 0.000519765767591 0)
(-0.005601469718 4.9480476542e-05 0)
(0 0 0)
(0 0 0)
(0 0 0)
(0 0 0)
(0 0 0)
(-0.00505534513259 4.29964862856e-05 0)
(0 0 0)
(0 0 0)
(0 0 0)
(0 0 0)
(0 0 0)
(0 0 0)
(0 0 0)
(0 0 0)
(0 0 0)
(0 0 0)
(0 0 0)
(0 0 0)
(0 0 0)
(0 0 0)
(0 0 0)
(0 0 0)
(0 0 0)
(0 0 0)
(0 0 0)
(0 0 0)
(0 0 0)
(0 0 0)
(0 0 0)
(0 0 0)
(0 0 0)
(0 0 0)
(0 0 0)
(0 0 0)
(0 0 0)
(0 0 0)
(0 0 0)
(0 0 0)
(0 0 0)
(0 0 0)
(0 0 0)
(0 0 0)
(0 0 0)
(0 0 0)
(0 0 0)
(0 0 0)
(0 0 0)
(0 0 0)
(0 0 0)
(0 0 0)
(0 0 0)
(0 0 0)
(0 0 0)
(0 0 0)
(0 0 0)
(0 0 0)
(0 0 0)
(0 0 0)
(0 0 0)
(0 0 0)
(0 0 0)
(0 0 0)
(0 0 0)
(0 0 0)
(0 0 0)
(0 0 0)
(0 0 0)
(0 0 0)
(0 0 0)
(0 0 0)
(0 0 0)
(0 0 0)
(0 0 0)
(0 0 0)
(0 0 0)
(0 0 0)
(0 0 0)
(0 0 0)
(0 0 0)
(0 0 0)
(0 0 0)
(0 0 0)
(0 0 0)
(0 0 0)
(0 0 0)
(0 0 0)
(0 0 0)
(0 0 0)
(0 0 0)
(0 0 0)
(0 0 0)
(0 0 0)
(0 0 0)
(0 0 0)
(0 0 0)
(0 0 0)
(0 0 0)
(0 0 0)
(0 0 0)
(0 0 0)
(0 0 0)
(0 0 0)
(0 0 0)
(0 0 0)
(0 0 0)
(0 0 0)
(0 0 0)
(0 0 0)
(0 0 0)
(0 0 0)
(0 0 0)
(0 0 0)
(0 0 0)
(0 0 0)
(0 0 0)
(0 0 0)
(0 0 0)
(0 0 0)
(0 0 0)
(0 0 0)
(0 0 0)
(0 0 0)
(0 0 0)
(0 0 0)
(0 0 0)
(0 0 0)
(0 0 0)
(0 0 0)
(0 0 0)
(0 0 0)
(0 0 0)
(0 0 0)
(0 0 0)
(0 0 0)
(0 0 0)
(0 0 0)
(0 0 0)
(0 0 0)
(0 0 0)
(0 0 0)
(0 0 0)
(0 0 0)
(0 0 0)
(0 0 0)
(0 0 0)
(0 0 0)
(0 0 0)
(0 0 0)
(0 0 0)
(0 0 0)
(0 0 0)
(0 0 0)
(0 0 0)
(0 0 0)
(0 0 0)
(0 0 0)
(0 0 0)
(0 0 0)
(0 0 0)
(0 0 0)
(0 0 0)
(0 0 0)
(0 0 0)
(0 0 0)
(0 0 0)
(0 0 0)
(0 0 0)
(0 0 0)
(0 0 0)
(0 0 0)
(0 0 0)
(0 0 0)
(0 0 0)
(0 0 0)
(-1.58136774457 -0.0241241170038 0.0139719771551)
(-5.25178844935 -0.782915531835 0.203506349386)
(-2.50916354979 -0.0583895051168 0.0250817519695)
(-0.811839019592 0.00309272600532 0.00313547492721)
(-4.62389113289 -0.436715594427 0.1227549694)
(-1.12193599744 0.0185541099365 0.00112888203995)
(-1.35706211813 -0.0782225989698 0.0248152287336)
(-1.75831820036 0.030651622233 0.00273136592126)
(-3.74600678264 0.0583899118207 0.00738702089914)
(-2.69802345891 0.0276231622991 0.00655191819516)
(-1.58315346717 0.0333192827425 0)
(-3.96026571787 -0.100965725961 0.044152182542)
(-1.9323237436 0.0472753299829 0)
(-1.41464947189 0.029772922659 0)
(-0.62734308146 0.0153482827537 0)
(-0.179742763484 0.00439750248057 0)
(-0.354192146721 0.0074543804669 0)
(-0.216126823041 0.00454863718173 0)
(-0.261522346537 0.0063982835544 0)
(-0.518217532503 0.0109064830704 0)
(-0.43118046667 0.010549059862 0)
(-0.805479727295 0.0197064907102 0)
(-0.380502366201 0.00930919313133 0)
(-0.748616551672 0.0157554950093 0)
(-0.272057711088 0.00572576694931 0)
(-0.912742472606 0.0223307309268 0)
(-0.335793476408 0.00821536632041 0)
(-0.667790818523 0.0140544246383 0)
(-1.70526775635 0.0417202842731 0)
(-3.61011798123 0.0883234599818 0)
(-2.58384165073 0.0543799147132 0)
(-1.54812057686 0.0325819753356 0)
(-3.18594197833 0.0779457680582 0)
(-1.93233542463 0.0472756157655 0)
(-1.36704668018 0.0287710672426 0)
(-1.32802748739 0.0324909000889 0)
(-1.70516758514 0.041717833531 0)
(-1.98126071844 0.0416979070149 0)
(-0.738019612609 0.0155324702576 0)
(-2.48109838882 0.0607013940805 0)
(-0.912747060574 0.0223308431739 0)
(-1.0746009983 0.0226162120352 0)
(-0.805475494709 0.0197063871578 0)
(-0.380507234297 0.00930931223189 0)
(-0.732781102092 0.0154222197881 0)
(-0.273663297158 0.00575955835194 0)
(-0.912759494143 0.0223311473678 0)
(-0.335799679045 0.00821551807123 0)
(-0.64645223735 0.0136053296932 0)
(-0.627304336993 0.0153473348497 0)
(-0.179734808545 0.00439730785876 0)
(-0.34921451725 0.00734962053858 0)
(-0.209909203366 0.00441778023561 0)
(-0.431149152233 0.0105482937376 0)
(-0.261516481945 0.00639814007401 0)
(-0.508106201541 0.0106936784989 0)
(-0.296319791441 0.007249621585 0)
(-1.03425365337 0.0253035667088 0)
(-0.44612469066 0.0093892064255 0)
(-0.443336524068 0.00933052625776 0)
(-0.553605064111 0.0135442428696 0)
(-0.553606948231 0.0135442889656 0)
(-0.237323129099 0.00499473778364 0)
(-0.139972540561 0.00342450278608 0)
(-0.109008479195 0.00266695052624 0)
(-0.209569169248 0.00441062382712 0)
(-0.0463967165344 0.00097545771231 0)
(-0.261501492978 0.00639777336096 0)
(-0.0566635058748 0.00138969454376 0)
(-0.111041096794 0.00233455947622 0)
(-0.139972591972 0.00342450404388 0)
(-0.109016442679 0.00266714535712 0)
(-0.209858057574 0.00441670381369 0)
(-0.0465848122567 0.000979412290061 0)
(-0.26150449385 0.00639784677889 0)
(-0.0566663164063 0.00138976347313 0)
(-0.11056740049 0.00232460035093 0)
(-0.0661190347968 0.00161763741636 0)
(-0.00973653573091 0.000170412842327 0)
(-0.0219610109804 0.000461714516265 0)
(-0.0218986650053 0.000460403736822 0)
(-0.0267661882293 0.000656451187852 0)
(-0.0267671271514 0.000656474215282 0)
(-0.05253387524 0.00110448707555 0)
(0 0 0)
(-0.0389434590121 0.000955103495071 0)
(-0.00937700113398 0.00014766961591 0)
(-0.015425615333 0.000242923580668 0)
(-0.0110324767668 0.000193094933937 0)
(-0.0208452843844 0.000511238715727 0)
(0 0 0)
(0 0 0)
(0 0 0)
(0 0 0)
(0 0 0)
(0 0 0)
(0 0 0)
(0 0 0)
(0 0 0)
(0 0 0)
(-0.00572252880895 4.86709858574e-05 0)
(0 0 0)
(-0.00859219151921 0.000150384060519 0)
(0 0 0)
(0 0 0)
(0 0 0)
(0 0 0)
(0 0 0)
(0 0 0)
(0 0 0)
(0 0 0)
(0 0 0)
(0 0 0)
(0 0 0)
(0 0 0)
(0 0 0)
(0 0 0)
(0 0 0)
(0 0 0)
(0 0 0)
(0 0 0)
(0 0 0)
(0 0 0)
(0 0 0)
(0 0 0)
(0 0 0)
(0 0 0)
(0 0 0)
(0 0 0)
(0 0 0)
(0 0 0)
(0 0 0)
(0 0 0)
(0 0 0)
(0 0 0)
(0 0 0)
(0 0 0)
(0 0 0)
(0 0 0)
(0 0 0)
(0 0 0)
(0 0 0)
(0 0 0)
(0 0 0)
(0 0 0)
(0 0 0)
(0 0 0)
(0 0 0)
(0 0 0)
(0 0 0)
(0 0 0)
(0 0 0)
(0 0 0)
(0 0 0)
(0 0 0)
(0 0 0)
(0 0 0)
(0 0 0)
(0 0 0)
(0 0 0)
(0 0 0)
(0 0 0)
(0 0 0)
(0 0 0)
(0 0 0)
(0 0 0)
(0 0 0)
(0 0 0)
(0 0 0)
(0 0 0)
(0 0 0)
(0 0 0)
(0 0 0)
(0 0 0)
(0 0 0)
(0 0 0)
(0 0 0)
(0 0 0)
(0 0 0)
(0 0 0)
(0 0 0)
(0 0 0)
(0 0 0)
(0 0 0)
(0 0 0)
(0 0 0)
(0 0 0)
(0 0 0)
(0 0 0)
(0 0 0)
(0 0 0)
(0 0 0)
(0 0 0)
(0 0 0)
(0 0 0)
(0 0 0)
(0 0 0)
(0 0 0)
(0 0 0)
(0 0 0)
(0 0 0)
(0 0 0)
(0 0 0)
(0 0 0)
(0 0 0)
(0 0 0)
(0 0 0)
(0 0 0)
(0 0 0)
(0 0 0)
(0 0 0)
(0 0 0)
(0 0 0)
(0 0 0)
(0 0 0)
(0 0 0)
(0 0 0)
(0 0 0)
(0 0 0)
(0 0 0)
(0 0 0)
(0 0 0)
(0 0 0)
(0 0 0)
(0 0 0)
(0 0 0)
(0 0 0)
(0 0 0)
(0 0 0)
(0 0 0)
(0 0 0)
(0 0 0)
(0 0 0)
(0 0 0)
(0 0 0)
(0 0 0)
(0 0 0)
(0 0 0)
(0 0 0)
(0 0 0)
(0 0 0)
(0 0 0)
(0 0 0)
(0 0 0)
(0 0 0)
(0 0 0)
(0 0 0)
(0 0 0)
(0 0 0)
(0 0 0)
(0 0 0)
(0 0 0)
(0 0 0)
(0 0 0)
(0 0 0)
(0 0 0)
(0 0 0)
(0 0 0)
(0 0 0)
(0 0 0)
(0 0 0)
(0 0 0)
(0 0 0)
(0 0 0)
(0 0 0)
(0 0 0)
(0 0 0)
(0 0 0)
(0 0 0)
(0 0 0)
(0 0 0)
(0 0 0)
(0 0 0)
(0 0 0)
(0 0 0)
(0 0 0)
(0 0 0)
(0 0 0)
(0 0 0)
(0 0 0)
(-0.0303310936873 0.000743881882221 0)
(-0.066123562894 0.00161774819867 0)
(-0.0782529199586 0.00164521155776 0)
(-0.0156983528584 0.000247218668729 0)
(-0.0962063026017 0.00235373845454 0)
(-0.0252620268315 0.000531116008675 0)
(-0.0208461465064 0.000511259859604 0)
(-0.038946093062 0.000955168096171 0)
(-0.139977103646 0.00342461442437 0)
(-0.0986017138691 0.00207303036561 0)
(-0.0367691351068 0.000773044712943 0)
(-0.123528916427 0.00302220076003 0)
(-0.0441310320555 0.00108233074376 0)
(-0.0325916018289 0.000685215069842 0)
(-0.00560180168937 4.94834090047e-05 0)
(0 0 0)
(0 0 0)
(0 0 0)
(0 0 0)
(-0.00513836456131 4.37025792692e-05 0)
(0 0 0)
(-0.00973656641011 0.000170413379286 0)
(0 0 0)
(-0.00956980793141 0.000150705949735 0)
(0 0 0)
(-0.0110329800693 0.000193103742944 0)
(0 0 0)
(-0.00663598218069 5.64400469879e-05 0)
(-0.0389447314936 0.000955134703175 0)
(-0.139980512383 0.00342469782096 0)
(-0.0993116604068 0.00208795648274 0)
(-0.0361290466901 0.000759587312739 0)
(-0.123533140977 0.00302230411588 0)
(-0.0441304422747 0.00108231627916 0)
(-0.0318183119887 0.000668957205172 0)
(-0.0303308096389 0.000743874915822 0)
(-0.0661200681644 0.00161766269825 0)
(-0.0762090969878 0.00160224164462 0)
(-0.0156249143177 0.000246062153875 0)
(-0.0962057033342 0.00235372379314 0)
(-0.0208462166933 0.000511261580966 0)