/*--------------------------------*- C++ -*----------------------------------*\
| =========                 |                                                 |
| \\      /  F ield         | OpenFOAM: The Open Source CFD Toolbox           |
|  \\    /   O peration     | Version:  v1906                                 |
|   \\  /    A nd           | Web:      www.OpenFOAM.com                      |
|    \\/     M anipulation  |                                                 |
\*---------------------------------------------------------------------------*/
FoamFile
{
    version     2.0;
    format      ascii;
    class       volScalarField;
    location    "3.4";
    object      p_rgh;
}
// * * * * * * * * * * * * * * * * * * * * * * * * * * * * * * * * * * * * * //

dimensions      [1 -1 -2 0 0 0 0];


internalField   nonuniform List<scalar> 
28582
(
19562.4312484
19562.3704472
19563.1743446
19563.1319777
19564.8937487
19564.8862104
19566.2989608
19566.7220921
587.378836905
597.479005249
0.0040689902827
19566.5622478
18528.3276979
18523.6607889
19566.6591937
19567.1442717
18516.0020868
19565.8172731
19566.5983246
19561.1651597
19561.8345979
19560.664372
19561.5390482
19562.4058768
19560.9593582
19563.0062143
19563.8776565
19563.9753472
19566.2834054
603.287509767
-0.0398989680434
0.0421905669177
19564.506859
19565.2344155
18555.4319355
18525.1887423
19565.6598788
19565.6451529
19566.5339251
19565.5234085
19565.7295029
18469.8194201
19566.2002579
19565.3559181
598.314806634
586.173488783
1.31131437581
1.69137742864
598.472828677
2.38210361067
19566.1501417
19565.9283915
18530.7774633
18555.7375829
19566.2797489
18538.5999093
19566.1754001
19565.7401511
19565.8522733
18529.7131733
18509.4040881
19565.4674128
18518.7230158
19565.9259354
19565.6127346
19565.8496383
18511.7776662
18510.2873238
19565.2102449
18511.7573377
19565.9888274
19566.0846826
18509.5572323
18511.2235292
19565.66301
18512.404182
18512.5375449
19565.9374952
19567.7218637
18537.9031886
18566.1427317
19566.6912505
18567.1196306
19567.553199
18537.6430204
581.518918157
1.48127278398
555.644834345
570.670461043
0.865578778515
1.03124840877
594.780020835
1.96507172443
1.47527894715
616.385226016
3.30897063808
621.394305426
2.08825550775
19564.6236992
19564.1394178
18555.1254181
18534.3010738
19564.6305548
19564.0107628
18534.2488792
19564.9568749
19565.3162654
18543.6081017
18524.3417363
19565.1255962
19565.2823312
18532.7335541
18527.9522012
18515.9097741
19565.8517318
19565.9332663
18521.9493809
19565.9276116
18527.0358813
19566.0240416
18504.2227326
18508.812182
19565.4262249
18499.5720224
19565.8044823
18493.3799686
19564.927407
19565.4152771
18490.1500983
18441.8738093
19565.5678017
19564.2998455
18470.40961
19566.4387909
19567.2575629
18526.8996487
18550.6274711
18519.685712
19565.4683795
18501.1169875
18475.3312907
18428.3896645
19564.3128202
19564.5433728
18430.1555207
19563.9529617
18465.3556055
19561.5432553
19564.403293
656.536863992
0.160656712882
19565.6074402
18514.872346
19564.2067975
19562.0095295
18437.8905
18388.8060793
18234.5688358
19558.8114719
19555.2957812
18150.6014942
17800.5759474
592.312005423
653.2293779
706.885104314
3.93149167461
4.98389583567
6.69192226407
762.739008256
814.159766656
19565.3486141
19566.019307
18510.0852998
18522.3917068
19565.4180711
18506.4268324
19566.1793185
19562.5111119
19564.8489417
18394.9600526
18409.4186932
19563.6303434
19563.555768
18365.3506629
19562.2253201
19563.5803267
18390.606704
18348.7775052
19563.376645
18347.6328191
19562.6722555
19560.6622042
19559.0314991
18225.2094563
18296.3780139
19558.3722403
18293.1762077
19561.1965792
19550.9199661
19555.8960414
18134.7676862
18051.6630615
19555.0618059
18022.1735472
19551.6127534
19546.6325302
19541.6459767
17807.0662397
17939.523398
19542.4703483
17909.417424
19546.7042191
19571.0821225
19566.2814585
19565.1388671
19562.7420158
368.844304619
449.949886422
348.068690539
404.331111316
412.333392226
0.0431995858615
0.160371849707
0.0906533683695
0.0976719015837
0.0594712073558
0.120084394592
19571.4399055
19570.7939205
18904.17808
18953.7996331
19573.3669806
18968.6123619
19569.2823011
19567.4669433
18960.3022648
18937.6874052
19571.2626585
19568.5513052
19568.48123
18976.1033134
18898.6849541
18950.7724348
18893.645768
19566.8906534
19564.1025496
18773.0213791
18568.6546582
18809.6576377
18659.5183647
19566.1789653
19564.6285168
18932.3152955
18890.0823832
18853.064014
19563.362324
19563.9332316
19562.7247616
18818.0072312
18672.7594185
18809.1078117
18671.4079318
18789.8100014
18662.3874036
396.062238516
381.582230374
389.802688319
1.13562564625
2.5021244954
1.30484373208
2.51295084588
4.43294533611
4.99021861729
4.18035550094
4.26626086653
360.261193279
346.66819119
402.774431336
353.224756282
379.071164013
1.08572194658
2.19539105146
0.652318137674
1.78369004603
479.483054472
421.538174308
450.961824979
3.53406290378
3.33769390888
3.03143943458
2.82677121611
366.982583457
368.468196559
0.297943417077
1.3204308637
1.0690341687
435.467625918
401.339040929
431.794103084
2.62990678116
2.79244600099
2.15316376847
2.84196415619
19570.0963176
19571.8461013
18879.5164356
18914.4806845
19572.1159882
18881.2491809
19570.2796331
19569.8618117
19571.4502329
18929.9466751
18917.3669379
19571.7813477
19569.89893
18896.970222
19573.7198789
19572.5778734
18974.4736769
18968.1448149
19572.9997635
19573.0533002
18970.9354713
19568.8335858
19570.8200493
18928.3718828
18953.7116205
19569.5522678
19570.0647262
18931.3489523
19568.137562
19568.3143817
18947.6026064
18926.2355312
19569.3228364
19567.4343445
18928.4457701
19570.8444256
19571.7587289
18974.3432422
18984.1246048
19572.028238
19570.8203174
18975.174169
19570.2151962
19570.0581073
18952.8991055
18863.9373944
19571.3901821
19568.6500463
18931.4787777
19569.9404335
19569.0198018
18974.7655451
18964.042787
19570.1369468
19568.9541054
18972.5562216
19569.2930504
19567.3527736
18867.3879748
18937.0192379
19567.8797833
19568.4730858
18937.0306155
19565.1681077
19567.7188513
18637.5696815
18787.7127505
19565.289939
19566.947376
18729.6204274
19562.5498589
19559.1979721
18603.6446871
18523.06634
19562.5999268
18603.8277588
19559.2777349
19564.6467776
19565.8420561
18794.5485518
18693.0599958
19566.4494024
19563.9659731
18748.5439624
19562.5411321
19560.6958052
18560.8093128
18661.4749151
19562.0148884
18639.7009058
19559.5781389
19567.1374123
19567.9426453
18952.4823864
18919.5389936
19567.9567708
19567.0756358
18932.0393054
19566.8744765
19566.5126766
18928.6523991
18868.8772382
19567.5088788
19565.9662268
18921.1666219
19566.0479227
19564.6300237
18861.1692842
18877.6140813
19565.3035708
19565.1174986
18908.9863479
19563.033732
19564.832682
18703.4008992
18794.9678451
19563.5938075
19564.5962007
18763.0272788
19562.183285
19560.2324464
18670.4735762
18622.800192
19562.1081705
18693.5351356
19560.8792284
19562.7313671
19563.6736002
18789.2687715
18705.4058565
19564.1369393
19562.3702398
18760.3509411
19562.0237598
19560.7080126
18624.6921915
18657.243692
19561.1744973
18699.4179207
19560.9011819
19560.7383976
19562.3106122
18686.9226383
18693.7585345
19561.6229053
19561.3415391
18699.3651468
19560.2630577
18645.8202745
19560.745647
19561.3142492
19561.6287148
19561.4145323
19559.0075206
19557.3920318
19556.6955497
19561.9860663
19562.3812849
19562.0091978
19558.8354213
19556.8081796
19556.4161514
19547.9598589
19552.9201656
19554.9011325
19558.8142653
19559.8986503
19558.5119786
19556.9176592
19554.9115589
19550.2140534
19555.9418727
19559.5617611
19560.6422014
19559.9434678
19558.5934693
19557.0479618
19555.1323479
19556.4346111
19557.9888035
19559.6739225
19560.2520599
19559.6240153
19558.3948004
19556.9100735
19555.1325767
19559.0549107
19559.69883
19560.8037032
19561.0377422
19560.1274891
19558.6416786
19556.978352
19555.6131622
19560.3459611
19558.7604275
19557.1319964
19556.1578232
19544.6803351
19548.1426992
19555.6307279
19558.3848235
19560.4069695
19558.8518158
19556.5214595
19554.2649966
19548.841214
19553.2919955
19561.5231394
19561.8545553
19560.726845
19558.8398446
19556.7642928
19554.704231
19556.2010302
19558.7432962
19560.2533594
19560.521393
19559.7451246
19558.3768832
19556.5420255
19554.9388766
19559.4454868
19560.3615784
19561.5455533
19561.6821426
19560.5356649
19558.6705974
19556.5635159
19555.3796312
19560.7226661
19558.6814143
19556.6016943
19555.9203678
19540.5420123
19546.7700982
19558.9598427
19561.0937627
19561.9526971
19559.0168148
19554.5764411
19550.5518954
19548.0934499
19552.2504996
19560.2002768
19562.3841962
19561.9451767
19558.8566281
19554.6837001
19550.7552673
19557.5315524
19560.2660148
19561.6934388
19561.9937241
19560.8136579
19558.3584001
19554.2934272
19550.4269125
19560.8547124
19560.9882589
19562.0586414
19563.0642347
19562.9820932
19561.3454398
19558.4238129
19553.8977269
19550.9745634
19563.6654687
19564.1284729
19563.5923771
19561.6055801
19558.2779142
19554.0037956
19552.386271
19558.0805693
19554.3200295
19553.6664917
19545.4032563
19552.2620275
19559.1391264
19562.5793264
19563.7735535
19562.2954226
19555.7350049
19550.7296588
19548.5826883
19551.4518385
19557.3536593
19560.7291796
19563.796848
19564.4378725
19562.4217186
19556.005404
19551.3334479
19561.215349
19557.4127041
19557.5113639
19560.9865203
19563.2006975
19563.8352342
19564.1570707
19561.7745177
19554.6268715
19550.1217692
19561.5208677
19562.2278972
19563.5443038
19564.5670361
19564.0880836
19564.0395873
19561.0811303
19552.9730905
19548.957031
19564.8890613
19565.927097
19566.0272234
19565.2571059
19560.4558542
19552.8148442
19550.7288524
19559.0366185
19553.1549311
19552.3297877
595.434087613
616.037746052
610.801388292
590.600163003
610.347050541
685.684975857
844.373044056
958.947181903
482.974333698
493.502173308
547.52325703
593.125264068
591.425253695
572.654823665
586.342252975
678.274358959
839.605308447
954.853631227
449.012491577
476.826820103
511.929269454
553.28389938
570.342438584
581.613985079
609.861847421
699.247628676
854.813779119
972.389302056
499.037561302
510.976986306
553.434234837
589.664323163
613.880107184
641.064641743
742.505554158
880.651981545
987.838257177
587.743122606
584.505959764
590.210648556
636.970214802
759.195663988
881.761192878
960.800729717
761.57439971
866.932454741
940.927978274
0.0182248633634
-0.048346417565
-0.049049022115
-0.047770688769
-0.0362856341935
-0.0379414789318
0.00612978828532
0.0491565823809
-0.0649369959718
1.34113391663
0.0122515705494
-0.00956969039719
-0.0292449706676
-0.042962635704
-0.0272300884307
-0.026869594025
0.0164584097824
0.0200677698282
-0.0318245841283
1.49020300869
0.0506023937092
0.012488007591
-0.00521164364617
-0.0153261613651
0.00957452983199
0.00226990918709
0.0236653320607
0.0853020536708
-0.088994674339
0.980530338073
0.00770582155502
0.00316770938928
-0.005070954297
0.0376227281485
0.00782146711956
0.028488682908
0.159999399971
-0.0710996251099
0.869120750291
-0.0452236140689
-0.0173578942433
-0.00690604584097
0.0592237322493
0.126256070643
0.13090129854
1.26616133937
0.097493791267
0.149281567837
1.47788541808
19550.5276181
19548.4448891
19551.7791073
19546.3239748
19548.9953589
19547.1636068
19549.6838875
19555.589668
19554.507151
19556.4842773
19551.5484021
19551.9733706
19552.2059101
19554.4917941
19553.2282301
19552.5271683
19554.294048
19549.8980693
19552.5202195
19552.0080687
19554.1798981
19557.2577946
19556.6164464
19558.06924
19554.9936739
19556.3998217
19556.4068088
19558.1115519
19546.789457
19545.1182273
19546.633911
19542.0352778
19542.6566891
19541.731573
19544.315815
19550.9287359
19549.1352331
19553.6422835
19546.6611112
19550.0269204
19547.2686935
19552.4399883
19550.800534
19551.7387772
19553.9050629
19548.1918966
19547.8261674
19551.4441682
19553.0952937
19555.5422156
19556.4681961
19559.4234523
19550.7214714
19553.9754135
19555.4535797
19558.4931867
19541.949439
19543.6622058
19544.494587
19539.7213419
19543.8427858
19544.2931075
19547.2845018
19551.2591762
19549.2147297
19553.945521
19549.7677018
19554.2059121
19551.2883824
19556.8482231
19548.8751973
19551.8977908
19553.7173291
19549.1302265
19551.7832995
19552.600925
19555.3909284
19555.261378
19556.0734109
19558.7558432
19554.9949637
19557.5968816
19558.3816377
19560.419928
19543.8894394
19546.5164693
18179.9945983
18287.5561653
19548.2865706
19548.8801566
19551.4576922
18192.2251485
18266.8629056
18285.6969026
18317.4155516
19556.1385146
19554.3958006
19557.4442851
18291.194169
18345.116437
18331.5448714
18382.081694
19561.6618544
19559.6569257
19561.9916327
18370.1695218
18439.2233739
18404.7692904
18462.2166904
19563.1946667
19563.0323023
19563.7408579
18437.4648038
18401.1470498
18476.1160204
18477.7045691
19563.7181495
19564.1113423
19563.9135451
18403.2520171
18441.0574191
18479.8660051
18472.4810577
19559.1760906
19562.383717
19559.303188
18424.3828941
18092.2461981
18438.2121044
18083.6912816
19552.6340371
19556.0423852
19553.0595468
17911.1428329
17491.3595172
17924.8971999
17549.8335157
19550.3454427
19551.3095183
19550.7267535
17516.4801716
17365.2023997
17564.1335095
17297.688502
19560.760657
19556.6202384
18425.9827131
18409.0177895
18584.3305223
18546.0284206
19548.7584263
19553.6148744
19552.5541475
18353.3017491
18334.3215132
18518.2072224
18477.1477038
19554.5538568
19554.1418761
19556.8953322
18328.3505869
18346.2344973
18466.9855702
18451.3954504
19558.9807189
19559.2413371
19560.8614208
18355.4950636
18397.7542188
18453.3916565
18472.6285892
19562.689138
19562.2192176
19563.3796156
18418.0800984
18480.0465516
18485.0748863
18521.9910255
19564.2382321
19563.976012
19564.3002327
18491.0360454
18502.9522958
18518.9487645
18494.2273305
19564.1378678
19564.4885669
19564.0803514
18505.6759728
18483.2954955
18495.628367
18478.1442767
19559.1938367
19562.2028434
19558.8577728
18440.5859667
18075.8632034
18432.0685643
18048.2275478
19553.1155266
19555.515346
19552.467236
17919.6801063
17563.7933938
17887.9316892
17522.0004974
19550.6733375
19550.6179206
19550.4595888
17573.4946467
17269.2713567
17539.1162473
17250.8426889
19559.1697821
19561.6119451
19560.6493282
18608.1145156
18574.0720194
18635.4039658
18617.7078499
19556.7318334
19559.9754986
19559.8517989
18551.3141198
18516.4686925
18611.6342585
18607.2800355
19559.192766
19560.2593226
19561.1248392
18507.304682
18489.1227021
18600.5631367
18571.671088
19562.3533482
19562.3934522
19563.6112829
18489.5152582
18502.027766
18555.588029
18547.6816913
19563.6735684
19563.9742063
19563.9151299
18510.3088482
18523.7491865
18533.034306
18433.1985375
19564.0269536
19563.7560734
19563.8670601
18513.9822319
18465.6921915
18407.5702296
18399.8671616
19563.7125065
19563.9720981
19563.4909878
18468.3723344
18453.51824
18405.7302134
18400.67259
19558.2827096
19561.4076333
19557.7862422
18408.515737
18027.9528959
18361.4964094
17968.2855192
19551.5645792
19553.7996714
19550.5436615
17864.7785385
17492.0894685
17781.5263618
17378.8846188
19550.1495188
19548.9901806
19549.9887121
17511.7563881
17266.5649631
17416.0633352
17262.8147798
18628.9161712
18608.3413659
19561.812221
19562.7385878
18604.9290627
18610.7155158
18575.2360061
19562.7812401
19563.385868
19563.8957303
18608.8175591
18581.1369989
18577.5619508
18550.3255903
19564.3000481
19564.3225811
19564.8892332
18564.6818974
18542.7219791
18540.552524
18524.0135682
19564.3324211
19565.2927919
19565.2744101
18524.7874273
18425.5535845
18525.2318002
18501.7497598
19564.035656
19565.0545268
19564.9001539
18396.8233264
18384.609845
18477.240652
18451.0226733
19563.4021008
19564.6880259
19563.607633
18388.825406
18380.4607995
18449.3727704
18399.0745267
19557.1208832
19560.8793365
19556.6997234
18336.6884756
17929.6238131
18315.6007069
17841.7271763
19550.069548
19552.7151153
19550.2425582
17744.2165872
17365.3355622
17681.4364913
17431.3079508
19550.2318142
19549.388687
19551.1145315
17403.1807091
17284.1014754
17465.8400713
17366.3805145
19565.4220656
19566.0202405
18516.489949
18518.7270519
18534.5352993
19566.1292795
19566.4270391
19566.5584548
18531.8358251
18545.5981399
18533.6976417
18532.9235872
19565.8321953
19566.3969469
19566.0311011
18536.4801536
18506.3570064
18526.8149316
18500.904578
19563.5379571
19565.0889531
19562.9930216
18492.6166993
18390.3259108
18472.3852359
18283.3975686
19556.2049264
19559.6854476
19555.7876781
18292.5188176
17821.0810411
18173.9704796
17794.2351155
19550.9859071
19553.1738895
19551.7371807
17681.4513658
17495.1591835
17713.4160256
17626.4745155
19552.2681682
19551.8215272
19553.4261985
17528.8294926
17366.8143163
17655.645223
17435.6135793
19562.2409414
18246.2615846
19555.3797645
18145.3017111
17801.597361
19552.1180462
17722.2845546
17644.0803608
19554.1504075
17666.9020364
17446.6275227
3.85725465803
0.719034428118
2.78579446754
0.358713848625
565.563334533
544.853504453
0.0559064792208
0.0418893262721
0.0398694099581
0.0357924402087
609.197033674
573.666517363
594.806366356
0.0504483003286
0.0527369751146
0.0514527255873
0.0955689555032
614.703829475
607.226005109
607.438644811
0.0366612335569
0.0323721656819
0.111886112056
0.0922664940092
594.761801304
601.300846237
589.133713579
0.0624079708376
0.26290513574
0.102691197152
0.11378719232
596.753278125
579.973170596
583.082526062
0.493206156987
0.369053722435
0.131051485592
0.119125549319
634.896501804
594.87050457
623.654172664
0.426496678362
1.28518339361
0.144144365789
0.916864989513
757.720365553
679.113408416
754.52960626
2.79251145825
5.44839806889
2.54907513674
5.52445975262
928.791915929
840.105711313
924.456252747
7.91811973251
9.57377872892
8.21318235235
9.7796360684
957.588138978
954.593400156
955.574449858
17.3460559704
28.7222765207
17.3749280312
28.8174198123
483.123639672
459.315182954
466.139665242
1.76948801071
0.307599357868
1.42953541593
0.357480849145
516.294437716
482.570157516
500.960430053
0.0482198492512
0.0446002707476
0.104025537396
0.0417242544981
576.159849182
527.732866337
553.95349617
0.0503026166574
0.0705378683679
0.0430220431851
0.0404113681934
595.916132212
571.94408056
581.177226034
0.0989119507382
0.11070665726
0.0878503300972
0.128589432743
579.380291688
578.421184798
570.700623229
0.122103530998
0.13631383945
0.233169562973
0.205093768031
574.447631864
570.270737347
575.672194892
0.109197115143
0.107112558595
0.207173330875
0.130563787022
619.423110549
590.687722117
624.853096151
0.108093110968
0.912525274542
0.298208564242
1.13784337472
754.988620488
683.844917364
760.023496881
2.57898487131
5.65789219405
3.04279086529
6.318607932
923.062883522
843.714288637
926.696082106
8.83000539603
10.660404036
9.33000791048
11.1677166145
958.202276315
958.489713363
964.512108181
18.3688892227
29.3002450527
19.251256402
29.4730112583
464.665586955
455.115771872
467.611483168
1.91514997954
0.814752239052
2.60554054917
1.7175684686
491.736534777
479.950669291
490.592131612
0.21077157018
0.046122635553
0.738917101591
0.319188341816
535.075588771
504.265794186
524.624871022
0.0351419648648
0.0346159978882
0.144814730414
0.0402833314299
568.160095951
547.348940012
562.375059846
0.0429537271132
0.112427751276
0.0454496396091
0.897156381386
573.281840281
578.195304422
591.541128596
0.391324880346
0.842472766062
2.46213880242
3.53078245823
592.677741825
601.168938993
610.747472302
0.896293392992
0.893338139741
3.44009979363
2.75706429946
643.077718865
626.314279232
660.983484027
1.01188043059
1.89118204537
2.31015165177
2.90877600287
771.573262782
719.341479827
788.482773701
3.75893950415
6.99125875427
4.68463999598
7.55112263677
937.783369967
868.377946965
949.87551393
9.10422271734
10.5559714119
9.56729189768
11.1119571471
978.736362233
982.318971688
985.012982648
17.2814190899
25.2796304061
17.6168736928
25.280515306
503.827524522
528.210761105
1.30336445362
0.794386081701
1.02472233743
530.757581575
531.051635914
546.853030088
0.309315505042
0.0686636301169
0.458819919726
0.605935789985
568.550809971
566.725144382
580.395793872
0.537561453228
1.73665687806
0.994217280945
1.20986988041
604.733961857
589.444322596
600.005636518
3.11444791097
3.64245958731
1.81107645515
2.04391873757
623.635282583
609.099247049
619.065396917
3.24075132215
2.58909721379
1.93345040301
1.82973471224
680.640223644
639.969814119
688.477491064
2.23021805604
3.20155468774
2.26846095982
3.67904403277
806.650104669
755.000575433
817.990809298
5.18332046125
8.10531415859
6.03003027192
9.00133686645
956.009626115
885.593801759
950.793049503
10.0409456247
11.4954540153
10.4855320279
11.4153727036
983.555622582
980.528455444
971.641986255
17.3034714774
24.0612870316
16.7191550256
23.2884658998
591.127777475
592.829181409
0.970261965768
0.5612617291
1.66175093144
1.48210925426
584.454455499
589.888331435
588.154535969
0.130349381706
0.183164532945
0.983462189549
0.747938821874
605.171099732
592.800913843
609.974166061
0.333467323273
0.821990767002
0.820654504452
1.28004826308
694.807913869
647.049080723
702.377024278
1.98806278347
4.13324360759
2.65392783868
5.57549207814
821.955717326
758.690746631
817.895676598
6.43576928616
9.01226153845
7.68433154088
9.53972755203
934.620560577
873.337952634
919.569570415
11.4048382657
12.6677046212
11.384330023
12.3266324179
954.597363694
943.245683495
945.341822781
18.0166814045
24.8231394881
17.3788878465
24.1739299454
707.710948715
6.54923879353
816.540365582
7.99980180783
9.11926942547
7.76329259139
8.58947383479
909.934967324
10.875243733
11.9772392899
9.89716140321
10.8184978091
943.450175982
17.9571347286
26.4213213139
16.5557392604
26.3593928123
19544.6339112
19544.6356086
18180.5087358
18219.2466503
19546.2928867
18196.3181272
19543.2955117
19546.0723546
19548.1131214
18247.9209593
18305.4890905
19547.5605824
19547.1713997
18225.8742714
19549.6142761
19546.6976289
18225.6171883
18233.2424965
19547.8427769
18239.6155465
19548.6831102
19551.1289945
19552.0828208
18247.8978597
18275.0267531
19552.4902016
18255.5863508
19550.5333978
19550.6599422
19549.9917041
18261.9990623
18298.0265931
19549.0533466
19551.7055818
18268.0409892
19552.1178435
19554.3721734
18297.8933237
18309.1602452
19553.4773081
19553.1541267
18280.8827987
19555.2395874
19553.7880542
18311.6018764
18288.5525399
19553.9080584
18304.7567732
19555.1905133
19556.6609854
19557.6180573
18326.1821628
18347.8127593
19557.8853254
18326.6063773
19556.4798457
19556.0095953
19555.740227
18309.1364974
18349.3877953
19554.7813757
19556.7616199
18322.6165855
19557.1606437
19558.574874
18364.0889441
18364.4394997
19558.2417982
19557.721056
18342.2352195
19559.7768028
19558.6394897
18395.4004312
18368.0980726
19558.8023186
18395.7161506
19559.4298648
19559.9622144
19561.2236225
18419.1584332
18464.1305815
19560.4003958
18431.0970465
19560.2701513
19560.0509592
19559.49458
18384.1842553
18429.0065401
19559.2075155
19560.475915
18407.4177104
19560.7433341
19562.326165
18463.6566263
18447.4820008
19561.6165085
19561.3758789
18434.544049
19560.572041
19561.3605165
18431.6491018
18469.9655805
19560.7462323
18468.9458455
19561.7586608
19560.1230091
19561.0704247
18421.9690666
18439.1937737
19559.8799593
18461.4895776
19561.6930426
19562.2650102
19562.9294279
18478.4418387
18482.8433381
19562.046563
19563.3728708
18481.3981515
19562.2251288
19563.7382827
18463.0783543
18481.5192349
19562.2955887
19563.5260945
18477.3517672
19561.043423
19561.1479083
18410.7534117
18437.9205971
19560.0949022
18434.1827996
19561.8669395
19562.7330663
19564.6572784
18428.8274072
18451.5337947
19564.4564738
18437.0182324
19563.0196686
19563.0840121
19564.0160371
18457.7816567
18479.2386761
19562.5065591
19564.3093303
18454.1599132
19563.9400717
19565.242518
18458.2504008
18480.6117533
19565.179816
19564.7119861
18451.1282786
19563.0961121
19565.0499929
18373.6141146
18436.0887784
19564.8040809
18386.7516969
19563.0016126
19559.3923482
19554.0095372
18251.6457429
18097.8666574
19553.7239317
18269.4415198
19559.0578344
19563.2016769
19564.7419837
18437.9925406
18367.344588
19565.050699
19562.58175
18378.4583072
19559.7228445
19553.6130913
18093.7170608
18239.3529941
19554.2681109
19558.6701178
18259.3415477
19542.9355736
19548.4980416
17732.5311323
17913.288323
19548.1728706
17752.677371
19542.4887381
19538.9688969
19535.6891808
17594.4550831
17514.7510114
19536.32204
17629.6231466
19538.0682208
19544.1617497
19548.7987404
17915.5445315
17773.8150896
19548.9981707
19544.0378838
17769.2489206
19540.4262503
19537.9487737
17539.1144987
17650.5807728
19537.2547487
19540.5144248
17653.0485423
19531.3948756
19534.1929849
17507.5296875
17531.966868
19534.4299521
17528.0026065
19530.9610125
19524.5187732
19528.6312964
17302.2701087
17359.2888783
17343.7091005
19528.7254459
19523.8768994
19532.0950215
19536.1377836
17552.6642851
17560.560422
19535.1886966
19532.6183122
17544.846002
19525.902369
19529.4623483
17306.6303648
17391.1738955
19526.5297683
17371.7497892
19528.9148902
19556.2511442
19556.2743042
18391.872316
18535.343324
19553.9877757
18529.9525452
19557.5805931
19553.3448086
19549.1174888
18426.4931202
18440.5376161
19551.3525094
19551.8497783
18451.4607124
19557.3662292
19559.7211705
18575.7675445
18567.3739887
19558.9417426
18572.4800675
19558.6518036
19555.5665373
19555.8585222
18499.0292233
18572.2882614
19554.2529336
19557.2072872
18506.8930913
19550.5302958
19548.0512978
18353.9794823
18449.7070499
19548.2099775
19551.3237743
18417.7466441
19550.4731469
19550.0893488
18354.1312277
18389.1624914
19549.1292897
19551.5660753
18388.9939577
19552.7778293
19555.3773979
18497.7484701
18510.686286
19553.6602976
19554.820342
18463.6407503
19552.3168256
19554.6377073
18436.8088842
18498.5324529
19553.0124702
19554.288193
18440.079653
19554.3323138
19551.3928267
18335.5246192
18385.4400459
19552.9085146
19552.9991721
18379.4865852
19555.4740623
19555.7503841
18341.0982495
18384.2103808
19554.5094638
19556.6491261
18381.1557172
19555.3280674
19555.5334369
18427.6996812
18462.0046904
19554.1267489
19556.4165905
18417.9010693
19556.5799917
19558.258038
18418.7535208
18452.9327995
19557.6397626
19557.3172422
18416.8208564
19558.6199254
19556.9295126
18370.0616059
18387.0880572
19557.7067005
19557.7111113
18393.0277214
19559.4081574
19558.9705357
18383.080924
18422.0912165
19558.3397432
19560.1652817
18405.0677049
19559.4520243
19559.2645121
18420.0892283
18458.239816
19558.5967928
19560.0852444
18424.2189873
19560.1737437
19561.3971144
18448.104823
18464.3611773
19560.6717517
19560.7790685
18433.00161
19561.5014962
19559.8336277
18443.3911445
18438.4190927
19560.6824039
19560.7991829
18454.6511468
19562.0034821
19562.2257894
18464.502934
18495.7250622
19561.4501377
19562.5144934
18473.5533451
19561.6692673
19562.064151
18465.4712447
18504.1725012
19561.1202592
19562.889031
18481.7803098
19562.14734
19564.0880834
18508.7296614
18519.3642438
19562.8247072
19563.662293
18494.8909529
19563.2751172
19562.86282
18498.5928662
18507.7222494
19563.3082875
19563.0392226
18507.9369312
19563.6130202
19563.7791145
18501.7792377
18505.0323084
19563.5773384
19564.1281097
18507.8599277
19563.6500045
19564.2329357
18519.0670484
18510.6977279
19563.3891882
19564.2880301
18520.0240527
19563.9036952
19564.4100269
18513.9306839
18503.0162939
19564.185068
19564.2519851
18518.2343203
19564.9874822
19564.0085651
18500.4749494
18504.366133
19564.5109641
19564.5870351
18501.0155735
19565.4929515
19565.3961344
18496.1188014
18491.7923114
19564.9583788
19565.7523522
18500.7243053
19565.1797218
19564.7416349
18513.0806251
18494.9544803
19564.6159033
19565.3855653
18509.3127676
19565.5838326
19566.0173229
18490.6659147
18492.8786383
19565.7351503
19565.9741821
18505.1752708
19562.2488158
19564.7010519
18363.1487762
18450.7986183
19562.3883018
19564.7857472
18363.9640456
19558.2581374
19553.4019103
18231.6894993
18063.1491968
19558.4698645
19552.9003136
18227.2820645
19561.8363616
19564.8788925
18444.2718007
18344.1973819
19564.6495287
19562.0250752
18357.5543768
19557.6454618
19552.2547335
18056.5514597
18207.5886574
19552.2720628
19557.6579584
18221.0141865
19544.0697802
19548.6724757
17775.2201277
17901.2196042
19544.4543118
19548.2597854
17767.206299
19540.994819
19538.3735361
17658.7606404
17556.2274073
19541.2435195
19538.2798648
17660.9250342
19543.2676309
19547.0756436
17893.7029169
17736.5349562
19547.5304412
19542.3792428
17757.4427743
19540.1996181
19536.340392
17548.9702524
17613.6748301
19537.4595023
19539.0123483
17650.0193156
19532.3244965
19536.1291078
17567.7132362
17562.4336485
19532.2543781
19535.9214764
17562.3773868
19525.7302368
19528.1879554
17399.9379548
17259.7956865
19525.382749
17412.7404324
19528.1748196
19531.9015144
19534.7904363
17557.3688658
17537.672644
19535.3218412
19531.3859666
17556.3251236
19525.5516444
19527.8400992
17263.2589532
17376.0752598
19524.7890761
17405.9246966
19528.1319423
19559.8525599
19559.6926971
18593.6658265
18628.8301957
19559.6005265
18628.1701048
19559.9012948
19559.3977757
19557.3231494
18595.1462776
18597.8111067
19558.5285705
19558.928727
18605.0524227
19560.3270257
19560.7001277
18628.088788
18615.2269124
19560.9248878
18632.161696
19560.3520423
19560.3297062
19560.5526785
18608.4913016
18619.8448085
19560.1018197
19560.7012323
18613.2524468
19557.9139613
19556.8838421
18544.2871017
18590.9872909
19556.4585569
19558.3919273
18573.8428233
19557.7789715
19556.3740094
18533.30714
18556.9995054
19556.0591496
19558.0610723
18563.1497776
19559.5816674
19560.6106097
18606.9831731
18611.2917914
19559.7885853
19560.7364115
18598.3048758
19559.7010012
19561.0879603
18586.2556971
18610.9042942
19560.0058244
19560.8886502
18590.6547602
19559.1235813
19557.0887709
18501.5172377
18546.7719243
19557.825559
19558.4866341
18535.2466855
19559.7831956
19559.5315163
18492.4770712
18522.5130415
19558.6033671
19560.4383435
18527.0081976
19560.8342714
19561.496761
18579.6186255
18593.8178993
19560.4066529
19561.9675417
18570.7762681
19561.2551335
19562.6806638
18550.8195114
18585.2369046
19561.8354968
19562.382489
18559.6156863
19561.8176033
19560.4426707
18491.552456
18519.5608116
19561.2632779
19561.1434603
18520.0434986
19562.4277443
19562.4716624
18495.1118787
18524.4138496
19561.929254
19563.0017826
18520.9698267
19562.7730532
19563.0942481
18546.2689492
18552.6897492
19562.3360977