/*--------------------------------*- C++ -*----------------------------------*\
| =========                 |                                                 |
| \\      /  F ield         | OpenFOAM: The Open Source CFD Toolbox           |
|  \\    /   O peration     | Version:  v1906                                 |
|   \\  /    A nd           | Web:      www.OpenFOAM.com                      |
|    \\/     M anipulation  |                                                 |
\*---------------------------------------------------------------------------*/
FoamFile
{
    version     2.0;
    format      ascii;
    class       volScalarField;
    location    "1.95";
    object      alpha.water;
}
// * * * * * * * * * * * * * * * * * * * * * * * * * * * * * * * * * * * * * //

dimensions      [0 0 0 0 0 0 0];


internalField   nonuniform List<scalar> 
28582
(
1.00000136252
1.00000129672
1.00000157704
1.00000206538
1.00000077957
1.00000125078
1.00000148704
1.00000201043
0.0162320421729
0.0176253998025
3.17496816657e-09
1.00000266955
0.950368856491
0.947321141329
1.00000269038
1.00000485156
0.948588848457
0.999967487805
0.99996176358
1.0000011071
1.00000244012
1.00000371909
1.00000068983
1.0000034133
1.00000453515
1.00000018261
1.0000020782
1.00000150289
1.00000282484
0.0180674153386
5.97863603098e-07
2.29953515904e-07
0.999999879866
1.00000160418
0.952112298188
0.944182412581
0.999989372376
1.00000244065
1.00000378207
1.00000418492
0.99996843659
0.949515782129
0.999963977408
0.99996532538
0.0168428875611
0.017302685359
8.10775515916e-07
3.06841224685e-08
0.0172681821857
8.77417426236e-09
0.999994796392
0.999958495251
0.950212925731
0.947924206358
0.999966415886
0.947354067822
0.999992273901
0.999964426645
0.999972872409
0.94687770628
0.948616934213
0.999966432022
0.949474799199
0.999977832596
0.999964515679
0.999976009368
0.947821242469
0.947088735941
0.99996567258
0.948410331661
0.999977192917
0.999963453814
0.948914366329
0.948527121853
0.999967731756
0.947729625822
0.94919066571
0.999966037782
0.999970932531
0.949401441641
0.948940664547
0.99995940066
0.94778585411
0.999975585558
0.949940816955
0.0156979582401
2.62203815427e-05
0.0152077836647
0.0160495692666
1.19618872045e-05
2.75404719402e-05
0.0175389470026
4.01220634718e-06
1.54099753892e-07
0.0185055083743
2.78737087436e-05
0.0187850154492
4.95635281548e-06
0.999948044229
0.999980496977
0.954315672602
0.949695482133
0.999983902295
0.999967695013
0.94670172744
0.999956415785
0.999934582929
0.947228071839
0.951426368381
0.999960389837
0.999961250233
0.949257914079
0.949365878641
0.946777910214
0.999963188514
0.999954491436
0.951941337328
0.999960224342
0.950366470625
0.999966627351
0.948974779321
0.948495180283
0.999972320531
0.948062597094
0.999960350568
0.949958489186
0.999970926482
0.999962281784
0.948208908205
0.948502003328
0.999958892322
0.9999706076
0.950062284503
0.999976554484
0.999975540373
0.948995750887
0.95103678891
0.950229575254
0.999969661356
0.95027178489
0.947906400177
0.948380703859
0.999960973856
0.999971735592
0.948875574124
0.999969427638
0.950642704408
1.00000249775
1.00000278946
0.0198009408091
1.06271177354e-06
1.00000105594
0.949174167905
1.00000488411
1.00000464867
0.949468621895
0.949286726744
0.946752451426
1.00000374658
1.0000034589
0.946708216393
0.94667822229
0.0165899927847
0.0197873768799
0.0214861135038
2.82741692638e-05
6.26477303164e-05
6.90373370766e-05
0.0233507594108
0.025354175596
0.999936096297
0.999965349477
0.946210576096
0.949749825369
0.999938252218
0.944797104486
0.999980761404
0.999974732522
0.999972298642
0.948588296327
0.94812057914
0.999974705366
0.999974220292
0.94909557542
0.999959724267
0.999969646745
0.947379444476
0.947453749007
0.999960207624
0.948225990533
0.999983511682
0.999960649225
0.999982893043
0.94741376286
0.946316702312
0.999958895645
0.948406445429
0.999986011807
0.999957392579
0.999976497322
0.947214356926
0.946347902106
0.999957698406
0.947285534209
0.999967449446
0.999956992922
0.999965019817
0.946966656828
0.946578759525
0.999957329923
0.946996058927
0.99996678808
0.999995385276
0.999999253136
0.999999735046
1.00000188727
0.00836581975451
0.00910619115324
0.00982355299677
0.0110747154601
0.0121565520388
-2.65872163617e-28
2.50653235031e-09
4.23717517433e-09
8.86923101184e-08
5.91192510033e-07
1.93785047656e-06
1.00000037873
0.999999149625
0.984409111637
0.983598775098
0.999998392586
0.985935419933
1.00000026564
0.999999363746
0.982306692551
0.977588920502
0.999993586802
0.999996535567
0.999994141733
0.984727545117
0.986904920147
0.980664046745
0.980318887326
0.999993775077
0.999993489288
0.985557517162
0.979062465249
0.979288006437
0.971059712623
0.999999574895
1.00000008721
0.979261943995
0.977048595345
0.96964606783
1.00000003441
1.00000130386
1.00000213002
0.976759297647
0.967872060515
0.9712601166
0.959553274417
0.970570412995
0.957875956129
0.00834795446233
0.00850360446706
0.00789448014839
5.81340415748e-07
2.32345018849e-08
7.20304622802e-08
2.81740529263e-09
3.4163770174e-10
8.96621760938e-07
7.84876509319e-08
3.60851324497e-06
0.00896873056811
0.00961816285078
0.00841150430326
0.00889685412006
0.00904598699178
1.7847386928e-07
7.14435226419e-07
2.7213649049e-06
2.440161164e-06
0.0111245833088
0.00991976104678
0.0117703785736
2.02475773467e-06
5.83030403836e-06
4.80790653259e-06
9.95427154936e-06
0.0101058840847
0.0108676033603
6.27361368851e-06
1.10418225654e-05
2.33877103464e-05
0.0127996433972
0.0119337260081
0.0134553302236
1.95530855538e-05
3.10382583494e-05
3.94530015075e-05
5.15631036856e-05
0.999995947963
1
0.982722575568
0.984527468096
1.00000177148
0.984579193779
0.999998860943
0.999998060178
0.999999436159
0.98416237213
0.981515208295
1.00000193109
0.999999114264
0.984244452823
1.00000064913
1.00000451519
0.984903000488
0.986350307364
1.00000413173
1.00000529605
0.987271076658
0.999995016211
0.999998810884
0.980353365025
0.98133221122
0.999995845063
0.999996740295
0.982061319019
0.999995646837
0.999995368513
0.979823072
0.975895594153
0.999994614722
0.999994540741
0.980755775493
0.999994784624
1
0.984469161978
0.980973771032
0.999995980478
0.999995191746
0.983348629065
0.999982394197
0.999991846983
0.98431128914
0.981819143503
0.999993185471
0.999973996808
0.983674857433
0.999992061674
0.999996515659
0.979049522877
0.979193925355
0.999996034517
0.999991438728
0.982078955033
0.9999889242
0.999991920832
0.979595979275
0.97696497258
0.99998733052
0.999988706464
0.982567511833
0.999975715595
0.999989040228
0.979770107962
0.979039574448
0.999983673926
0.99997933083
0.983253286858
0.999973906596
0.99998344305
0.972488936325
0.966608300463
0.999975100301
0.979570082314
0.999964941517
0.999980210075
0.999995380002
0.976244533586
0.972353444046
0.999985934111
0.999985623788
0.98102297142
0.99997580084
0.999977515211
0.964842159866
0.964478710219
0.999969994673
0.977792382869
0.999956917157
0.999991917151
0.999995875577
0.976992024391
0.973026547737
0.999986602097
0.99999261871
0.975042735037
0.999989251687
0.999991272729
0.973547291863
0.972329490788
0.999983645357
0.999983702135
0.976557461626
0.999992497683
0.999982826694
0.970693007121
0.967317374059
0.999987761388
0.999983198257
0.9752494775
0.999985057173
0.999999742318
0.969786541287
0.966310739115
0.999989065559
0.999984541715
0.970939283352
0.999977856688
0.999976275875
0.961753094242
0.959088662822
0.999966655096
0.970033356342
0.999956901623
0.999978941876
0.99998768873
0.963685987089
0.964700312762
0.999975370868
0.999979932205
0.967563387017
0.99997961998
0.999969413136
0.958131967417
0.95512652527
0.999969434397
0.967846894361
0.999970179067
0.999981428499
0.999997611321
0.964555436749
0.961520561987
0.999992546785
0.999987480994
0.96365824193
0.999968797035
0.954646281956
0.999967392534
1.00000116299
1.00000173382
1.00000214227
1.00000478325
1.00000539546
1.00000565085
1.00000111564
1.00000177521
1.00000227887
1.00000525837
1.00000554038
1.00000527699
0.999963922952
0.999951200012
0.999995144333
1
1.00000252949
1.00000471868
1.00000619877
1.00000710864
0.999993365119
0.999973895379
0.999990570367
0.999999623739
1.00000120437
1.00000239158
1.00000321028
1.00000332137
0.999998910816
0.999999240023
0.999999963906
1.00000074065
1.00000164679
1.00000243912
1.00000300142
1.00000300739
0.999999866682
1.00000029967
1.00000105965
1.00000188809
1.00000208644
1.00000251274
1.00000283152
1.00000273119
1.00000306565
1.00000347252
1.00000364189
1.00000312647
0.999770999188
0.999978230422
1.00000056998
1.00000255427
1.00000420428
1.00000575204
1.0000084485
1.00000913143
0.999915414847
0.999959899264
0.999999870678
1.00000121677
1.00000234468
1.00000324796
1.00000353693
1.00000306222
0.999998318617
0.999999573973
1.00000040765
1.0000013335
1.00000222147
1.00000293813
1.00000343968
1.00000316735
0.999999664333
1.00000021347
1.00000088754
1.0000015484
1.00000208398
1.00000272088
1.00000314052
1.00000287365
1.00000275504
1.0000028656
1.00000287169
1.0000020597
0.999830429848
0.99998521134
1.00000134536
1.0000022369
1.00000263804
1.00000504175
1.00000694469
1.00000720267
0.99995395676
0.999991162738
1.00000085688
1.00000130292
1.00000163812
1.00000172832
1.00000331216
1.00000391078
0.999998856841
0.999999769191
1.00000043959
1.00000103368
1.00000152316
1.00000194994
1.00000230959
1.00000210951
1.00000013989
0.999999371077
0.999999862841
1.00000046902
1.00000089612
1.00000142097
1.00000185268
1.00000218007
1.00000205129
1.00000065619
1.00000116818
1.00000157822
1.00000179926
1.00000171345
1.00000179944
1.00000147112
1.00000309109
1.00000306199
1.00000267852
0.999992759215
0.999997580558
1.00000085279
1.0000050075
1.00000438315
1.00000741121
1.00000763158
1.00000325783
0.999994476241
0.999994418091
1.00000001234
1.00000456632
1.00000479575
1.00000402973
1.00000358106
1.00000748032
1.00000812144
0.999999989434
1.00000096609
1.00000173037
1.00000111647
1.00000225796
1.00000320391
1.00000307711
1.00000305682
1.00000393036
1.00000374264
1.00000293883
1.00000061324
1.00000081707
1.0000017572
1.00000297729
1.00000376443
1.00000448694
1.0000053625
1.00000470145
1.00000071119
1.00000131181
1.00000225802
1.00000331437
1.00000424539
1.00000499559
1.0000037142
1.00000319155
1.00000233682
1.00000051433
0.0187175563935
0.0196091283136
0.019224586948
0.0208728193956
0.0233444408798
0.0268226549642
0.0301380929669
0.0342252816557
0.0137359935592
0.0169964093736
0.018680693803
0.0194188612527
0.0195417138594
0.0207566819156
0.023278367563
0.0263768690133
0.0296392834336
0.0338172159382
0.0146759010809
0.0173380944947
0.018145461024
0.0179971448371
0.0183775209855
0.0200575376386
0.0225513649452
0.025460137176
0.028420072943
0.0328409215781
0.0163539165412
0.016410229243
0.0166356454877
0.0173368222746
0.0190890585626
0.0217417069023
0.0247316495126
0.0275778919143
0.0317077673281
0.0167327735763
0.0177399125603
0.0188628646293
0.0209894053506
0.0238048434441
0.0271115995044
0.0318929561372
0.0232698887462
0.0275882506995
0.0325416167262
5.91321592726e-08
4.82288629404e-08
2.57831604425e-07
5.17364701792e-08
8.04889391014e-08
1.27210335051e-07
3.28562623444e-08
5.76711183195e-07
7.80555617786e-06
3.21360668643e-05
1.12351246222e-07
3.14572479708e-08
1.55713880476e-07
1.29889646696e-07
9.30023373143e-08
-4.11934882696e-27
2.52412111007e-09
3.93742052295e-07
9.55045530639e-06
2.91898939712e-05
1.18809795645e-06
3.84644749536e-08
7.97436581614e-10
2.8185182612e-09
2.29080651682e-08
2.11287311522e-08
8.14564817959e-09
1.34525689781e-07
5.19867097533e-06
2.23208949426e-05
5.03370815834e-09
3.27228379072e-08
5.91380253995e-08
6.22126890136e-09
1.25171583444e-09
1.48926575549e-09
4.34596723106e-08
4.03488617659e-06
2.00718899494e-05
2.32818001209e-07
5.16574665889e-41
1.98472552583e-09
3.00467195115e-08
5.64493384762e-07
7.27885289442e-06
2.20790859571e-05
1.09273612449e-06
9.5522513626e-06
2.85235735374e-05
0.999940820861
0.999991083176
0.99999043733
0.999842729051
0.999889003268
0.999940990836
0.999914356491
0.999981932732
0.999986652983
0.999968824452
0.999962656732
0.999988947908
0.999941866234
0.999982365552
0.999992571546
0.999986435914
0.999977068424
0.999985793668
0.999983408511
0.999988898343
0.999977169057
0.999968570759
0.999977933592
0.999987780242
0.999965832783
0.999972055306
0.999978828605
0.999988879753
0.99989949699
0.999792622077
0.999866789479
0.99975413806
0.999901066926
0.999755376014
0.999866573172
0.999997694121
0.99996545602
0.999997230403
0.999980673665
0.999998529164
0.999977608786
0.999999827287
0.999920551717
0.999983293238
0.999984807316
0.999869764241
0.999919760568
0.999977412987
0.999984216232
0.999991117803
0.99998650778
0.999992945444
0.99997836747
0.999998646175
0.99999036363
0.999997736087
0.999922164449
0.999879771137
0.99993653706
0.999957359786
0.999975698977
0.999983443861
0.999987916627
0.999999936595
0.999987782302
1
0.999993044305
0.999999998998
0.999993110119
0.999999808008
0.9999746469
0.999988361085
0.999991674447
0.999989358384
0.999991654296
0.999995069877
0.999995296639
1
0.999995256066
0.999999397481
0.999995148451
0.999999722449
0.999998331827
1.00000019006
0.999975106895
0.999980475869
0.930157112985
0.93201169186
0.99999599372
0.999988951825
0.999991254733
0.933700400859
0.936525989319
0.935445537964
0.936930832946
1.0000002758
0.999995610561
0.99999963569
0.936471493475
0.941294805745
0.937047611017
0.939431637098
1.00000439736
1.00000309848
1.0000051143
0.941591825776
0.942298930618
0.93971868244
0.940757609091
1.00000629926
1.00000584419
1.00000383931
0.939960564942
0.939615877952
0.939569525176
0.939483191325
1.00000548094
1.00000419686
1.00000127866
0.938869717726
0.939156389387
0.938394380006
0.940090513468
1.00001379292
1.00000166868
1.00000571441
0.938838154289
0.940590468859
0.939942793616
0.942835454817
1.00000807561
1.0000104524
1.00000865373
0.940513757541
0.938696826627
0.942796380069
0.935369609198
1.00000203788
1.00000751535
1.00000677271
0.9339828643
0.899891341865
0.931180729904
0.902908559284
0.999993935292
0.999995780972
0.973487541416
0.94466089704
0.967758890222
0.946633887889
0.999993808536
0.999993898798
0.999995988821
0.947182578496
0.933149743273
0.948990067972
0.937214559122
0.999998596012
1.00000036034
1.00000197196
0.936586455759
0.937104672432
0.940805967477
0.939199128949
1.00000270846
1.00000257613
1.00000188194
0.937615870243
0.939529305468
0.942063765639
0.94044209825
1.00000684403
1.00000279053
1.00000202742
0.939803805793
0.940594584767
0.942424524667
0.941630110658
1.00000683844
1.00000329221
1.00000227421
0.93962094649
0.939688718759
0.941677486925
0.941418976884
1.00000616629
1.00000349375
1.00000191752
0.938711071181
0.940271148031
0.941087267895
0.942411221311
1.00000609903
1.0000032943
1.00000175823
0.94015862576
0.943330525209
0.94249365728
0.944864197041
1.00001064276
1.00000402092
1.0000028881
0.943357771045
0.934841410134
0.944875669687
0.937837614985
1.00000858605
1.00000366923
1.00000222821
0.930722471268
0.904247786488
0.933341266447
0.906219736723
1.00000115205
1.00000278515
1.00000457821
0.966088725301
0.946082223728
0.96034628941
0.945722074259
1.00000254403
1.00000360226
1.00000598165
0.949086519707
0.938051787232
0.950208884987
0.940814432704
1.00000144284
1.0000043075
1.00000324554
0.942044306892
0.940243088625
0.946733909872
0.943875763468
1.00000255838
1.00000247695
1.00000227318
0.943374370275
0.941969652203
0.947301809683
0.9458417768
1.00000415138
1.00000295536
1.00000327894
0.943791980859
0.942309374845
0.9475589019
0.945425064583
1.0000046588
1.00000427414
1.00000385854
0.94237704884
0.941770142864
0.945772473706
0.944366156868
1.00000454166
1.00000432937
1.00000332122
0.941518259746
0.942620598378
0.944251286205
0.944456194204
1.00000547116
1.00000422158
1.00000343898
0.942624685898
0.944758488028
0.944241518048
0.945419163697
1.00000629895
1.00000544721
1.00000391903
0.944801164034
0.939514611377
0.945324253328
0.94265442031
1.00000391168
1.00000453378
1.00000322482
0.935103732081
0.906594913752
0.938906863936
0.910166018874
0.959302729082
0.946045950856
1.00000074157
1.00000300464
0.951401829496
0.941939935891
0.947649601795
1.00000065191
1.00000194883
1.00000277644
0.947754325333
0.944682957607
0.951566973105
0.944289307779
1.0000018493
1.00000284054
1.00000254324
0.947773794459
0.945810543552
0.946867266845
0.943869411835
1.00000332502
1.00000269037
1.00000274045
0.947582313285
0.945721290904
0.94643622863
0.946267921314
1.00000428331
1.00000357858
1.00000359711
0.945999885533
0.944658390097
0.946870718031
0.946359199755
1.00000491765
1.000004177
1.00000388891
0.94450442386
0.944679315008
0.946125754703
0.946414773617
1.00000623129
1.00000471727
1.00000431586
0.944418776468
0.945534108036
0.94626324725
0.947300030443
1.0000069201
1.00000603355
1.00000456938
0.945441691307
0.943069222875
0.947173002733
0.942805391873
1.00000474179
1.0000045694
1.00000306623
0.939528490777
0.910758503786
0.938801792453
0.910163553574
1.00000162517
1.00000237414
0.946764937934
0.943980458336
0.946852562047
1.0000025399
1.00000359187
1.00000358057
0.946563789244
0.946589169455
0.948180467429
0.948400622525
1.00000356057
1.00000371073
1.00000405813
0.947095675283
0.946847540845
0.948405947204
0.949129823387
1.0000041839
1.00000341925
1.00000170867
0.946514683557
0.946924136643
0.948953908755
0.949063667134
1.00000578883
1.00000249366
1.00000224075
0.946783713106
0.947817775302
0.948682149952
0.948769753917
1.00000597896
1.000004282
1.0000028293
0.947709945563
0.941667772957
0.948433307171
0.936745068656
1.00000337827
1.00000276167
1.00000122712
0.937567850888
0.910174109846
0.932846580111
0.908404578095
1.00000419544
0.949140261505
1.00000448483
0.948649491174
0.94851250283
1.0000029705
0.94815875459
0.935215751332
1.00000063034
0.931433118237
0.908080586879
1.46666564277e-05
6.89797317816e-06
1.10600850299e-05
6.62517037018e-07
0.0184207437335
0.0182718821753
1.69924455031e-06
2.85803726483e-06
9.08010714747e-07
2.23738951147e-06
0.0191599963806
0.0189832865053
0.0191742085251
5.26002765399e-06
2.84782270214e-06
9.529698202e-06
1.50369823507e-05
0.0193861054773
0.0196538560843
0.0197184530056
2.15950420382e-07
2.85283716632e-07
9.84681072562e-06
5.39412101396e-06
0.0197683797893
0.0196203463916
0.0200199194999
1.00000378795e-06
5.15377605427e-06
6.70837791125e-06
4.87642090513e-06
0.0220276669022
0.0208115185628
0.0220593182858
1.24651861261e-05
1.73746859964e-05
5.13487143941e-06
2.28716953082e-06
0.0250310505358
0.0234613144075
0.024980051809
1.87899965704e-05
2.24385999695e-05
3.99682382659e-06
8.0608461151e-06
0.0285928662491
0.0266130257368
0.0283348888278
2.52132051196e-05
4.81209687366e-05
3.55953253473e-05
7.75846398615e-05
0.0323448034774
0.0299522304929
0.0325183393438
0.00010066327719
0.0002500702823
0.000161896741449
0.000292423776241
0.0346337982322
0.0340092627377
0.0341869722499
0.000391935470472
0.000505082473692
0.000397383583723
0.000486736414089
0.0155738005202
0.0141297139876
0.0158384946231
8.52887835722e-06
1.59011290721e-06
1.58945211047e-05
8.97548220694e-06
0.0181616442267
0.0170993332895
0.0180437461669
1.25523872271e-06
2.06454730992e-06
2.89296667467e-06
4.13842559056e-07
0.0190557416929
0.0183431728029
0.0188078698675
5.40980317183e-06
1.45266303261e-05
1.62198553732e-06
7.81261658038e-07
0.0194987683444
0.0186285442276
0.0189066765315
1.44252300819e-05
1.0682532031e-05
8.62203980171e-06
1.00116085853e-05
0.0199683896009
0.019051262652
0.0196655313536
8.36391399884e-06
7.81909331704e-06
1.62671601682e-05
8.36743705754e-06
0.021936411549
0.0204772743393
0.0216587443188
2.27966305139e-06
2.08869239695e-06
8.01573002913e-06
9.91820640359e-07
0.024846121191
0.0229101586154
0.0244146779551
2.2074074405e-07
6.93242854809e-06
3.23544000583e-06
7.61872911014e-06
0.0279300147008
0.0258032245427
0.0273643403513
2.7149616375e-05
8.34636017346e-05
2.49078463792e-05
5.91720076614e-05
0.0323500976277
0.028961077377
0.0318343036218
0.000178519925126
0.000302688344081
0.000151207105219
0.000284893540179
0.0338497118838
0.0334374240704
0.0334387300842
0.000391583343106
0.000462831008773
0.000376787655827
0.000445442017249
0.0161820602867
0.0150802140084
0.0164183071565
3.48064774508e-05
2.14214069737e-05
4.66616257702e-05
2.06885463348e-05
0.0177649427187
0.0169173232353
0.0175933916353
3.85198182699e-06
3.77415836233e-07
4.0105324223e-06
4.23232541727e-07
0.0180537658198
0.0172559840711
0.0173033727814
4.30597274967e-08
1.12626246507e-07
3.26143287901e-07
4.61677908144e-08
0.0180210002937
0.0170507420604
0.0172184098071
2.46696355913e-08
4.49112456348e-06
2.48302039695e-07
1.43663883574e-06
0.0190336080344
0.0175268560928
0.0183194631657
6.68101726563e-06
1.4516980026e-05
3.60639570737e-06
2.78620017974e-06
0.0211765877532
0.0193420448719
0.0206626686907
1.02013479065e-05
1.34260304719e-05
6.83196442947e-06
6.59160615611e-06
0.0239873647428
0.0219764003379
0.0235262605458
7.3588757597e-06
1.34338196491e-05
8.02663549755e-06
5.99012162795e-06
0.026922185477
0.0250329690752
0.0264865947188
1.67328531971e-05
4.77894253768e-05
1.50703314129e-05
3.3702220024e-05
0.0309491843247
0.0279179417375
0.0301250515915
0.000111006448094
0.000248082209293
9.76766108607e-05
0.000213896473761
0.0331369206291
0.0321456888603
0.0327636752844
0.000340931137628
0.00041269805498
0.000312324986923
0.000394337508623
0.0163246137586
0.0152221484782
5.12512685671e-07
3.70232969814e-07
4.17960061932e-06
0.016397038868
0.0156439140185
0.0161717014965
5.69245868803e-08
2.85880781923e-07
5.6414276682e-06
1.32138859357e-05
0.016908739217
0.0166686687179
0.0171731587575
1.48622146819e-06
4.68680246258e-06
1.90240989675e-05
1.42597114677e-05
0.0179863747558
0.017623687242
0.0180807314055
3.60451270569e-06
2.60408058747e-06
6.76231489402e-06
2.51710803643e-07
0.0203914526594
0.018968866825
0.0201497486968
2.29638031633e-06
9.74820436315e-06
1.23572088179e-06
2.88266364961e-06
0.0232189850669
0.0213578609415
0.0227832578319
4.4847906686e-06
6.58705825458e-06
5.6853354486e-06
3.20735563225e-06
0.0261646288097
0.0242503089605
0.0257241317829
2.9574490305e-06
2.66958763603e-05
1.0782668737e-05
2.59795934005e-05
0.0296343070195
0.0272079105144
0.0295635978499
7.67536936482e-05
0.00020035589861
9.09781513621e-05
0.000204872729688
0.0324905744004
0.0316419229949
0.0322738532954
0.000296835544857
0.000382717882192
0.000298686507035
0.000378127755881
0.0173792088765
0.017027722344
2.49399013366e-05
1.49183589702e-05
2.19190879155e-05
2.29435813149e-06
0.0182783793977
0.0175296642433
0.0180665054638
8.62428219192e-07
3.44623059991e-07
1.29167266949e-08
4.69615177844e-08
0.0198655505158
0.0186023226648
0.0193519915074
7.2195926749e-08
3.23983458193e-07
2.27388640991e-07
3.86980940013e-08
0.022309097634
0.020288824882
0.0216125378929
1.16499996615e-07
9.20635279001e-06
8.00841559242e-07
1.7542039023e-05
0.0254538525868
0.0233086256207
0.0251882812438
1.76982313345e-05
5.48787737066e-05
4.44317125475e-05
8.01452732955e-05
0.0300047660172
0.0274799523322
0.0305946962392
0.000117589914402
0.000234736424592
0.000164123022837
0.000265841609862
0.0322059232095
0.0322944930637
0.0323687843582
0.0003126480484
0.000384100214293
0.000332279300307
0.00039234134154
0.0213119917398
5.16454975776e-05
0.0253160384951
5.98204284816e-05
9.2293889961e-05
5.57774226564e-05
5.47246963305e-05
0.0308418350527
0.000169820633044
0.000281055548027
0.000123016754523
0.000258628259593
0.0326020896353
0.000359618503614
0.000426967232571
0.000358701502297
0.000442414437644
0.999958713787
0.999890999953
0.921881517694
0.930119047074
0.999958208827
0.934172530274
0.999933364414
0.999956704484
0.999906169605
0.930937658794
0.924948971882
0.999952123172
0.9998868924
0.935476011918
0.999889872588
0.999888294133
0.933493013152
0.930087240841
0.999932880561
0.93409768315
0.999893829128
0.999828041695
0.999901445895
0.934947030252
0.934316314806
0.999774958871
0.934668208559
0.999900948393
0.999877818559
0.99992972177
0.930496516869
0.933979297344
0.999906855597
0.999929350194
0.934695983292
0.999862893248
0.999925387814
0.934883163227
0.934404317406
0.999847766888
0.999927342789
0.935570137442
0.999783157514
0.999903706191
0.936671387405
0.935459828688
0.999770695952
0.937712491431
0.999905697662
0.999809012185
0.999933951045
0.938803739533
0.939665048656
0.999836656816
0.938676643967
0.99991460604
0.999851610203
0.999922101171
0.93565219499
0.936556565136
0.999844020174
0.999919715166
0.937522336123
0.999866675582
0.999933589429
0.938661606449
0.937493459948
0.999882750007
0.999923365661
0.938124819695
0.999917777945
0.999947617885
0.941820755103
0.941321535821
0.999882369901
0.941573677852
0.999955318029
0.999944433517
0.99996825229
0.942488326927
0.939873778376
0.999972177714
0.940527739253
0.99995701674
0.999928653071
0.999939689681
0.940271291881
0.939889909252
0.999898862348
0.999948206941
0.940842206962
0.999958802205
0.999939290544
0.939856064153
0.940691875268
0.99996820971
0.99994676329
0.940178421528
0.999944153121
0.999969849529
0.938150455526
0.94030092098
0.999967118849
0.940260378241
0.999973130437
0.999935086932
0.999982347164
0.938861798559
0.937674867317
0.999937496686
0.938632778198
0.999981631021
0.999979987079
0.999941238962
0.940295217216
0.939016453498
0.999970863752
0.999948744266
0.940181056008
0.99998454833
0.999956338568
0.937798511057
0.939500971092
0.999981236368
0.999957474418
0.938499645744
0.999936888982
0.999976785367
0.938112188109
0.938386286989
0.999940322272
0.93883305624
0.999968849504
0.999933897789
0.999966971474
0.938757807907
0.938378299271
0.999936550325
0.938366628868
0.999967091403
0.999938658481
0.999956381719
0.938615714929
0.938200579539
0.999959843763
0.999957498575
0.938943591868
0.999937702271
0.999960513669
0.938481325762
0.939434681737
0.999942154332
0.999961955418
0.938422271337
0.999945115886
0.99996634886
0.938939400867
0.939580670322
0.999942352872
0.940039015035
0.999965420971
0.999952237066
0.999948109421
0.94008880248
0.940141977614
0.999962494055
0.939827608755
0.999962207914
0.999939835719
0.999956116506
0.939940800306
0.940260014851
0.999941681272
0.999954591862
0.94055304587
0.999942009525
0.999963081806
0.940665264261
0.94199230782
0.999954701824
0.999958505348
0.940380535555
0.999984909589
0.99994434782
0.941114867857
0.941650464697
0.999977874604
0.942253823873
0.999946894973
0.999975305164
0.999921403525
0.940394757854
0.936681486734
0.999940868704
0.940907498915
0.999942505469
0.999959356793
0.999975532677
0.94217401747
0.942900554328
0.999965754529
0.999969391509
0.942825159949
0.999940228073
0.999935936004
0.935617060953
0.939493050935
0.999901235051
0.999957513206
0.940617512625
0.999820416465
0.999887185385
0.924743705182
0.929119558034
0.999892782624
0.923560109609
0.999819146851
0.999672782848
0.999719888647
0.915626057496
0.902434640691
0.918334860588
0.999711197677
0.999667928981
0.999795977605
0.999907529559
0.927997204148
0.923702020416
0.999854251969
0.999851606891
0.922806516852
0.999680675101
0.999748222551
0.904496785474
0.9159695611
0.999712732726
0.918582284863
0.999716005717
0.999976358741
0.999994531538
0.952093830144
0.953248202032
0.999977035312
0.962324092769
0.999958286593
0.999998610804
0.99993848225
0.93447293771
0.940434496831
0.999936516438
0.999978073145
0.960123814611
0.999971163242
0.999980563908
0.952385311354
0.95105349907
0.999953374436
0.960952177298
0.999945030117
0.99999933546
0.999925405603
0.942375884785
0.938350652736
0.999979873804
0.999911952956
0.959743713893
0.999895812704
0.99995374939
0.93364472199
0.927541515681
0.999897291179
0.999876028098
0.93580497809
0.999977083943
0.999889258793
0.926806114644
0.934489926726
0.999862974672
0.99997712752
0.940091883979
0.999909377764
0.99994906958
0.930340119986
0.939178531723
0.999890909558
0.999924012753
0.937374668914
0.999940761299
0.99993611051
0.936401433025
0.932320139375
0.999925583456
0.999916138644
0.941845305913
0.99992700329
0.999915835803
0.934669591718
0.932362538489
0.999904590613
0.999946372349
0.936384131011
0.999916990541
0.999898891392
0.934591925889
0.936655816956
0.999891238887
0.999907992854
0.938042836392
0.99988998758
0.999974353772
0.933716639311
0.938373285269
0.99988959881
0.999974804465
0.937341628268
0.99990704674
0.99996534565
0.938172452849
0.936735013427
0.999912727369
0.999966408479
0.939510375094
0.999914574891
0.999909360916
0.937109251952
0.936450242498
0.999902512805
0.999909425488
0.938684755541
0.999916025335
0.999900979689
0.937772468414
0.939094311654
0.999895304869
0.999916686086
0.93965209084
0.999913032047
0.999968710958
0.937565580127
0.941201598812
0.999909822914
0.999967189376
0.939368728482
0.999920091131
0.999957019194
0.940129318262
0.939561893178
0.99991999235
0.99995914512
0.940898699472
0.999937064895
0.999912438953
0.93984264209
0.939289202731
0.999916550394
0.999924539741
0.940618234738
0.999942600478
0.999940623285
0.940486702448
0.93988610257
0.999922548144
0.999945678106
0.94053568178
0.999919747743
0.999961757853
0.939726955553
0.941680843007
0.999915907464
0.999962050067
0.940801825268
0.999929692998
0.99996146081
0.940134484283
0.940673266523
0.999933768018
0.999962334225
0.941004829202
0.999951742512
0.999962706494
0.93914795672
0.94027830123
0.999964940815
0.999952998571
0.940530606208
0.999948923469
0.999955147191
0.93965866918
0.93894841255
0.999961450981
0.999950624812
0.93959018645
0.999932692482
0.999962958701
0.940263675526
0.940371875559
0.99993172855
0.999962494371
0.940730243352
0.999937037967
0.999959921756
0.939299664021
0.940524062574
0.999939111579
0.999962099735
0.940081132297
0.999951784534
0.999953840145
0.938539515446
0.939728530156
0.99995090237
0.999954901065
0.940197233511
0.999943597507
0.999936532653
0.939683165265
0.939622620324
0.999945173657
0.999943216534
0.939664595638
0.999935526663
0.999959720472
0.939959565096
0.940576973391
0.999935910759
0.999958370878
0.940649151194
0.99993697744
0.99995648109
0.940370814968
0.941336056616
0.999939045229
0.999958042391
0.940351796582
0.999946958679
0.999933189278
0.940498565717
0.941105794681
0.999932155887
0.999947522526
0.942475091558
0.999944551952
0.999936152959
0.942324658997
0.943026442855
0.999934299919
0.99994611243
0.942581669604
0.999937502633