/*--------------------------------*- C++ -*----------------------------------*\
| =========                 |                                                 |
| \\      /  F ield         | OpenFOAM: The Open Source CFD Toolbox           |
|  \\    /   O peration     | Version:  v1906                                 |
|   \\  /    A nd           | Web:      www.OpenFOAM.com                      |
|    \\/     M anipulation  |                                                 |
\*---------------------------------------------------------------------------*/
FoamFile
{
    version     2.0;
    format      ascii;
    class       volScalarField;
    location    "1.95";
    object      p_rgh;
}
// * * * * * * * * * * * * * * * * * * * * * * * * * * * * * * * * * * * * * //

dimensions      [1 -1 -2 0 0 0 0];


internalField   nonuniform List<scalar> 
28582
(
19555.3620215
19556.0597051
19554.9371361
19555.6518363
19553.4774498
19554.5466957
19551.6349227
19552.5280553
357.506501305
388.131812022
0.0193994393015
19551.8765993
18641.1042056
18583.6016566
19553.643013
19553.7517246
18608.6274061
19552.8890076
19552.7934359
19554.5457034
19557.3232142
19558.7944337
19553.9860155
19557.1626703
19559.0165464
19552.4724854
19556.6605068
19551.1925773
19554.9902782
397.881695162
0.026825903014
0.0174344832387
19550.5055268
19551.4368449
18673.6982878
18522.6421588
19550.2357984
19556.7397383
19555.0118039
19556.6073174
19553.61239
18630.6556961
19553.4876508
19554.7093373
370.891115473
381.074400666
0.0031605608427
0.00689472645614
380.253937071
0.0197657649987
19550.7556282
19550.0850339
18636.5498384
18592.0210005
19550.3473141
18583.6409637
19550.5706814
19550.4593236
19550.6068857
18573.264895
18607.3862453
19550.5934726
18624.8153352
19550.3519617
19551.6341793
19551.3732141
18593.6635533
18578.4712986
19550.8909756
18605.1378081
19551.7062425
19552.8694158
18615.8798979
18608.1028894
19552.4694774
18592.4592003
18620.8114271
19552.0863031
19552.904128
18624.428328
18615.8270874
19552.4087428
18592.4244663
19552.1936387
18635.137499
345.753080877
0.646819482614
334.964345202
353.417330069
0.292320717603
0.653925734093
386.378515311
0.0772076446589
-0.00733104862286
407.596815377
0.626902945732
413.661793489
0.0828747539122
19549.05901
19550.0922746
18712.0959349
18623.1832526
19549.566636
19550.0827163
18570.4306415
19548.950482
19547.5641699
18577.4210552
18658.1079083
19548.5146468
19548.7852427
18619.3627228
18618.1849589
18572.0855325
19549.432122
19549.4293108
18667.9777733
19549.1731295
18640.6659256
19553.7449067
18617.8828499
18608.0110686
19554.7117326
18601.0426406
19554.3111294
18636.9164113
19555.6681572
19556.4247109
18604.7039156
18610.9928211
19555.2299464
19556.3088948
18640.1386543
19554.3832096
19553.9461293
18617.0826544
18656.8856453
18641.31261
19554.5941834
18642.5996367
18597.5511019
18608.3513766
19555.7364667
19555.5835592
18617.8768912
19556.1081637
18651.1570936
19559.4926265
19558.738482
436.085518578
0.0240597935211
19551.1016541
18618.210044
19558.5490436
19560.8147696
18631.1910008
18627.4795107
18584.2903462
19563.0174824
19565.1159399
18585.6179508
18591.8552841
365.299272412
435.842279332
473.259756414
0.618272743998
1.44284232869
1.59649123241
514.30297328
558.398794668
19548.551354
19549.6309687
18559.2658998
18627.7583177
19548.40489
18534.9447367
19550.018086
19558.9168571
19557.8092976
18615.7923934
18604.8349066
19559.0808934
19557.4162154
18625.1591164
19558.3173063
19557.145239
18590.3353958
18593.5556572
19556.8527288
18608.4542762
19558.337229
19559.8487998
19561.353323
18596.7738551
18573.5640374
19561.2621513
18613.9457334
19559.6402496
19564.7207595
19562.9729271
18595.1290324
18580.8642064
19562.8586863
18598.8229505
19564.5614325
19566.4515899
19567.9837704
18597.5833588
18587.653951
19568.052885
18595.6755339
19566.3716853
19573.4871415
19568.3943645
19564.020124
19561.7005726
184.497332844
200.921044385
216.392926259
243.992667306
267.760473024
0.0959964551814
0.175575577231
0.108309883341
0.102311114629
0.0524664486664
0.0526410675295
19576.0151105
19574.974213
19288.2783529
19272.215551
19576.3675293
19317.1029811
19573.2902708
19571.3285937
19247.5799987
19157.8100343
19572.8438277
19570.6800194
19569.2818146
19293.9877201
19334.8704371
19216.8761687
19209.1568865
19566.4411023
19562.1452487
19310.0165349
19187.1564665
19191.1579463
19034.8620505
19566.6888745
19564.9063394
19190.3286789
19146.9544666
19006.6944508
19560.4749383
19562.3529693
19559.2226501
19143.1449172
18974.164389
19039.5614378
18815.9654662
19026.2600163
18784.1513262
184.07038795
187.421074369
174.20292979
0.0737538809993
0.0413270042411
0.0483365127184
0.0104473951774
-0.00277053770879
0.0215026765293
-0.0229194258455
0.081250585495
197.595285956
211.806752054
185.530815938
196.181717039
199.500051698
0.00392546040082
0.00227149167101
0.0381588714776
0.0434839623543
245.108242763
218.773976262
259.363824881
0.0354850868623
0.13200277786
0.104371237091
0.237506442605
222.643392842
239.417147301
0.112438134814
0.235656420871
0.531153384977
281.828757229
262.833326411
296.274636242
0.436043222707
0.721773871276
0.915149037551
1.22954202496
19574.3211365
19575.1897037
19254.845796
19289.5175531
19574.9321361
19291.779814
19573.921585
19574.0088059
19573.7793864
19282.5749009
19232.0168552
19574.4509565
19572.9839851
19285.3275642
19576.4672192
19574.8293618
19296.543995
19325.2442693
19575.3271628
19575.4092609
19342.4360269
19572.1545433
19572.8638702
19209.8601437
19228.8024811
19572.2311958
19571.8081824
19244.3246357
19571.2319175
19569.7460986
19199.7457937
19124.2469538
19570.6372264
19569.3898134
19219.568304
19572.1665578
19573.5523042
19288.9597775
19221.0260841
19573.6670221
19571.6584953
19266.751237
19572.0740351
19573.6138072
19285.8910686
19239.22257
19573.5385424
19571.104247
19273.3338898
19570.775063
19570.0664027
19184.032071
19187.6532871
19570.4424019
19569.1836291
19242.5706756
19570.621415
19568.2676226
19196.2414916
19144.2288677
19569.4129856
19568.1706599
19252.4073487
19568.940968
19572.9728704
19201.5637614
19185.5651301
19570.256064
19569.7569422
19265.8030838
19566.8777958
19564.6772315
19060.6315518
18949.501604
19566.4888752
19198.4562176
19561.5063447
19567.274684
19567.6097733
19131.4381695
19058.3028967
19567.811259
19564.7854662
19223.2351527
19565.2468372
19560.6675809
18915.3457742
18906.0291181
19561.33372
19164.4503256
19559.84668
19566.8857535
19568.869997
19145.4101288
19068.5717343
19567.6940521
19566.7468146
19108.9331806
19566.5065534
19566.6044033
19078.7737882
19056.5339917
19566.5022406
19564.5488751
19139.0139543
19565.5441258
19563.1519113
19024.9362126
18958.6630163
19563.4575921
19563.0631329
19114.2917316
19562.5504004
19566.1162188
19008.9964829
18939.9606058
19563.2299643
19562.4973079
19031.6867153
19561.1213926
19559.4936867
18853.7921965
18804.2543488
19559.7906411
19017.292638
19556.5363287
19561.1335184
19562.5048697
18889.835395
18910.6021523
19561.0377027
19559.3513548
18967.4434581
19560.0040557
19556.6861326
18785.7774678
18725.7512607
19556.3466757
18975.2995416
19555.9979316
19559.8166589
19562.2390744
18907.3818554
18847.051471
19559.1231377
19559.6938736
18893.7909141
19556.3833031
18716.5969693
19555.9628919
19554.3970179
19555.3916071
19556.8632075
19560.1863329
19560.9275394
19560.509928
19553.9068005
19554.9940927
19556.7417446
19560.7581366
19561.6762527
19560.9676844
19543.4559096
19548.841691
19551.9537808
19554.7663172
19557.0848417
19558.9613353
19560.3140188
19559.961089
19545.8625973
19549.916164
19553.1998688
19555.3680451
19557.3638314
19559.1628168
19560.4393163
19560.0300866
19550.1886363
19551.5353595
19553.7219397
19555.7498818
19557.6952478
19559.4571572
19560.6169341
19560.1439495
19552.7288939
19553.1501911
19554.6416924
19556.357427
19558.1125927
19559.7426941
19560.7308737
19560.301875
19558.4706805
19559.9781519
19560.8430582
19560.3939915
19539.4461705
19547.077419
19550.4188844
19554.1256719
19557.218804
19559.6040822
19561.09497
19560.5544865
19543.711124
19548.3700313
19552.9872018
19555.2369343
19557.6181692
19559.8520971
19561.270357
19560.6335156
19549.3491225
19550.9018717
19553.1241904
19555.5131018
19557.9411403
19560.1112732
19561.4792487
19560.7904167
19552.12146
19552.5993465
19554.2064628
19556.2136874
19558.3917493
19560.388765
19561.5930106
19560.9370147
19558.7495949
19560.6103972
19561.6573883
19560.9518061
19536.6370929
19545.0172134
19550.1242828
19553.6624824
19557.5620642
19561.2616937
19563.3526229
19561.5855227
19541.4146763
19547.0628057
19551.587701
19554.3981179
19557.9484112
19561.531759
19563.5553658
19561.7262622
19547.3773715
19549.4068838
19552.0633271
19554.9905099
19558.5013376
19561.8313564
19563.7278886
19562.1440297
19552.3957206
19550.500913
19551.1720624
19553.1559479
19555.7676615
19559.0035306
19562.1143484
19563.7934704
19562.3074775
19552.4257861
19553.9246692
19556.3404568
19559.3676991
19562.2542441
19563.6973853
19561.9998306
19562.1418268
19563.4664494
19561.6459585
19536.388759
19543.8256872
19548.5028782
19551.7876611
19556.0855856
19562.0036005
19566.24179
19564.2511768
19538.4242921
19540.2300479
19545.2410765
19548.8910849
19552.0931127
19556.4478978
19562.3693454
19566.6560378
19564.2776295
19556.0386008
19546.8046315
19544.8576928
19547.2261747
19549.78951
19552.7887166
19557.2478809
19562.7494033
19566.7507527
19565.1004128
19550.7492608
19548.3703233
19549.089792
19550.8695279
19553.7556007
19558.0378292
19563.0551624
19566.7494334
19565.5880055
19550.3391881
19551.6520185
19554.6088906
19558.5879602
19563.4242227
19566.9037864
19564.7895519
19563.3807879
19566.467215
19563.2829414
412.149387328
431.584485855
423.385458685
459.595018987
513.987205599
590.528539478
663.807569565
754.121531212
302.367119675
374.222565316
411.279861683
427.43652214
430.281647642
457.084966508
512.502697951
580.686564735
653.026954774
745.139286231
323.039454571
381.591261412
399.352527717
396.181517791
404.687327647
441.642492617
496.531241799
560.562453065
626.088268125
723.56965516
359.88965622
361.332977711
366.39111078
381.907051566
420.388365044
478.715842428
544.500633533
607.426308735
698.62398065
368.459508198
390.64070906
415.37174039
462.113810387
524.140319616
597.377929783
702.655637743
512.494454969
607.861243327
716.875769933
0.00715412739723
-0.0540795989251
-0.0587587765051
-0.0602364963399
-0.0226347565135
-0.0432922199962
-0.0546848761526
-0.0850222896856
0.0193956930957
0.409780913347
-0.000966298217314
-0.0460737772807
-0.0635651766063
-0.0524042883527
-0.0232887839199
-0.0272447776505
-0.0406338046804
-0.0683665704194
0.0740029514447
0.362934125988
-0.0267040456973
-0.0593249765457
-0.0467765323963
-0.00957008446914
0.00970723086587
-0.000747898746243
-0.0129155758093
-0.0601965243902
0.00962622051744
0.248935368876
0.00338153805319
0.00425540874872
0.0222009425656
0.0319790924313
0.0077648001429
-0.00966356568241
-0.0575457038726
-0.0110288471851
0.212010382282
0.00916713312779
0.0153456335149
-0.00541247342628
-0.00546109420032
-0.0310855956786
0.0533872942576
0.244051067319
-0.0221895020189
0.0695534571068
0.351602162022
19546.3301872
19544.1829179
19547.2951095
19541.8532143
19545.486316
19542.9150172
19546.1823085
19550.048553
19549.3475632
19550.4588786
19548.3530329
19549.6380354
19548.5262833
19550.0739709
19548.2553527
19547.5000158
19549.0614565
19545.0965212
19547.649371
19547.0471366
19548.8083641
19550.9029048
19550.5063849
19551.7229684
19549.4368066
19550.405076
19550.1613487
19551.3336135
19543.7997821
19540.1771771
19544.2649992
19537.9632874
19542.8650209
19538.3607714
19543.1455987
19549.0225384
19547.3303468
19549.7150477
19545.8808026
19548.1566673
19546.7112908
19548.9304092
19546.1146614
19546.40897
19548.0867456
19542.1487451
19545.1421735
19545.686444
19547.1523303
19549.992089
19549.5834107
19550.9289814
19547.8199133
19549.6002747
19548.7895293
19550.2991559
19541.7195456
19538.3062043
19542.4542437
19536.9383545
19541.6439766
19538.7231219
19542.5718796
19547.5165703
19545.9203505
19548.2500294
19544.9356405
19547.5115434
19545.3420536
19548.2993372
19544.4059549
19544.5130826
19546.1773962
19541.2875227
19544.4049773
19543.7310312
19545.9733466
19548.6840492
19547.960436
19549.4912973
19546.3156625
19548.1673775
19547.5682572
19548.8768531
19532.0080434
19535.0426309
18250.8909563
18287.0229239
19540.661682
19538.0033365
19541.4456224
18320.5897402
18376.6383008
18355.2362995
18384.7796078
19546.4692252
19544.2303626
19546.4715986
18376.6145148
18469.9708264
18388.0236908
18434.7459518
19550.1290321
19548.4296168
19550.1046434
18475.9755167
18491.3630493
18440.659784
18462.081547
19553.6584928
19551.8152465
19553.7289893
18447.6797297
18444.5032332
18440.2581678
18442.2961473
19558.9978461
19556.1498934
19559.0781022
18431.8991601
18443.41422
18423.1277077
18461.2839073
19564.6550387
19562.1171242
19564.7938483
18439.6550228
18479.9409103
18460.7009474
18522.9002339
19566.3252973
19566.4904465
19566.3187493
18480.6513975
18451.8775089
18524.7235965
18387.8516929
19559.8091986
19564.2063994
19560.3315744
18362.072203
17693.3623592
18307.5690859
17755.5007174
19556.5632447
19549.1744082
19085.2303616
18528.0643323
18975.5350062
18568.365846
19538.015504
19543.1374655
19541.3936338
18579.5870152
18309.2443961
18615.7802556
18388.2524023
19543.0995057
19542.7166166
19544.6477484
18377.0555142
18387.8864559
18458.647117
18427.9752072
19546.9191685
19546.3266048
19547.6782212
18398.77466
18436.4350559
18483.4576584
18452.8904376
19550.6052662
19549.2228577
19550.7169184
18442.0400383
18458.8786298
18491.460564
18477.9958815
19554.1135923
19552.4205825
19554.4045058
18441.1615239
18446.194151
18480.1603443
18478.9915678
19559.436075
19556.8913695
19559.7374134
18429.1198962
18464.7042252
18474.2944078
18505.0454293
19564.9783998
19562.6622279
19565.1248081
18464.7303168
18532.2519141
18508.6367519
18560.287912
19566.4850788
19566.7159483
19566.5976206
18535.4182871
18377.4988443
18562.9767174
18434.127672
19560.5262806
19564.5844416
19560.8617491
18298.3629624
17780.954009
18347.9791629
17818.458818
19551.0939916
19555.6701721
19552.2214066
18943.3628502
18558.096055
18833.3930562
18552.2362509
19544.6943718
19548.9995607
19547.1394794
18618.0850338
18404.5113097
18639.4888002
18457.985535
19546.0464318
19546.7082415
19547.3484926
18482.7050944
18447.6626395
18571.8921781
18516.6300192
19548.5642894
19548.2881531
19549.3360035
18508.1803187
18481.6452944
18582.532423
18555.102274
19551.237881
19550.4489163
19551.7645014
18517.2671043
18490.6732017
18588.4632872
18549.3998304
19554.869459
19553.3456743
19555.3441924
18493.2390503
18485.4156396
18557.4449392
18534.4326694
19560.0690337
19557.7080188
19560.3707787
18482.2781407
18508.7505405
18533.9079395
18543.1667677
19565.1447281
19562.9466296
19565.1769592
18510.8336251
18557.6773917
18541.0118018
18569.0679728
19566.8511915
19566.7596232
19566.9485297
18560.7215819
18465.7030622
18569.2379125
18524.1274038
19561.4337452
19565.4640803
19562.0771393
18381.5779671
17825.7094738
18453.2946279
17893.834074
18813.1475783
18558.3204627
19549.0477337
19551.0806813
18662.1209147
18479.1923672
18588.3305245
19548.6138511
19549.9970085
19549.6998743
18590.8131813
18531.8125355
18663.3502562
18524.5284295
19549.9550646
19549.8351529
19550.3769067
18591.146675
18554.1715699
18573.8087553
18517.5216706
19552.2142881
19551.2681712
19552.6228197
18588.6266063
18554.8095389
18567.1232157
18565.5368977
19555.7672803
19554.2379066
19556.1777782
18561.580804
18539.8820751
18578.3513344
18572.0898709
19560.638007
19558.3667091
19560.8952369
18538.5811186
18547.1994629
18569.0863399
18579.5639208
19565.1487624
19563.3157453
19565.4269509
18544.1389107
18570.9661911
18578.5977781
18604.153581
19567.0092835
19566.8565431
19566.9109581
18571.129088
18531.641548
18603.8304114
18526.3676544
19562.3065026
19565.3123216
19561.9935791
18464.8493146
17905.1157559
18450.4700299
17892.8687111
19550.8166214
19551.4527253
18571.9716551
18519.8490781
18574.6563522
19553.0073351
19552.249993
19553.4175868
18569.8262773
18571.9307539
18600.9414305
18606.449797
19556.5019561
19554.8863656
19556.7302149
18582.6937551
18581.2587212
18607.4243286
18623.8220081
19561.0628275
19558.7996317
19561.1982965
18576.2614819
18588.9542087
18621.755394
18628.7779035
19565.6093905
19563.5373122
19565.5080586
18588.1894894
18614.0734889
18623.6455774
18632.5327308
19566.7213843
19566.7556994
19566.1906121
18614.3487797
18504.8571463
18629.0439384
18410.8246954
19561.3840805
19563.9398256
19560.6081607
18426.7176685
17892.8456396
18336.1697784
17858.6811954
19561.1682417
18630.0258243
19565.4990469
18622.8919906
18627.5997943
19565.7309528
18623.6783514
18381.4268721
19560.004914
18308.9116839
17852.4532385
0.342496219707
0.18823249821
0.241895394186
0.0375388281285
405.495219314
402.215580691
0.076704694856
0.11429629724
0.0684974130349
0.099467570001
421.795554569
417.869797127
422.164915076
0.168302223622
0.106822643379
0.260129320522
0.382577663337
426.769021595
432.618840756
434.050453594
0.0266709329106
0.0205418885692
0.251639802889
0.141508235718
435.379716483
432.036564991
440.882668846
0.046201034656
0.147900004253
0.178383557539
0.141451019987
484.984496626
458.332998401
485.696185143
0.31021470926
0.404296765738
0.146507430853
0.0637979399482
551.086403347
516.516138421
549.9227889
0.42303613418
0.488233826776
0.0825163874801
0.149332547981
629.537927341
585.911703124
623.920731891
0.540487433172
1.05787237156
0.767634085726
1.74194751885
712.658493625
659.875094959
716.488722961
2.27786116897
5.7604985666
3.71031647077
6.7559439414
763.303002236
749.401593362
753.515022836
9.04115869957
11.7071414104
9.17678092046
11.2896048304
342.934666234
311.057511647
348.735074358
0.196988859411
0.0665321320566
0.394384927113
0.244674408009
399.787542937
376.47565418
397.196056039
0.0724333852736
0.0921667282963
0.106876324455
0.0451676001814
419.496632511
403.849962628
413.901538
0.165095943083
0.369501532496
0.0769395793577
0.0351292618962
429.219482043
410.124522619
416.15649654
0.352642223223
0.262870682669
0.217072375456
0.251690491163
439.718853115
419.48332553
433.001049487
0.211139502043
0.205587124338
0.400961577673
0.21104890255
482.992617729
450.888812706
476.854293841
0.0722096559772
0.0557975117544
0.194745383191
0.01573517139
546.967470857
504.420179597
537.504807994
-0.0121098796765
0.11731927456
0.0521348548996
0.13152471989
615.040303324
568.14449319
602.585151431
0.565447792911
1.87332034653
0.521029865339
1.31537216311
712.824091834
638.10750207
701.426343384
4.09539225569
6.99879652326
3.46211346606
6.58585557706
746.057836338
736.768320905
737.022993844
9.05075437962
10.7389045222
8.71016979638
10.3392342824
356.23711192
331.892827244
361.302248037
0.833911319839
0.541655006322
1.1571611822
0.534282909397
391.083516698
372.404026338
387.094585901
0.119094909478
0.0392399596148
0.123424522973
0.0233590669502
397.396455583
379.914894122
380.905758718
0.0221826106526
0.0145314700562
0.0218659875706
0.00337308312065
396.799548485
375.531959714
379.225897645
0.000862695622538
0.104122042264
0.00965224920329
0.0355803156415
419.150948651
386.110083114
403.504968723
0.161946010111
0.347975745559
0.0966347227106
0.0800764148657
466.303441663
426.00383433
455.006950138
0.237080289808
0.302516488993
0.166346544239
0.146291497973
528.148232743
483.95271501
518.016152401
0.146543610742
0.27281325468
0.168296756833
0.107132406322
592.816721534
551.180253264
583.208673634
0.337121983652
1.05363997367
0.307375790992
0.734319071681
681.947210878
614.985574103
663.801959184
2.5304430145
5.7310891109
2.22022136294
4.9405461117
730.29296225
708.273099105
722.038591238
7.88717486441
9.5901834102
7.22154702273
9.16022938399
359.419258504
335.271751484
0.0160402787228
0.00742604293004
0.0910438639343
361.160977884
344.545665477
356.132852354
-0.000604319224984
0.00459911210724
0.12914907147
0.308614000132
372.453158474
367.08023365
378.17665232
0.029493088977
0.113399082519
0.450009037357
0.342713428573
396.210595991
388.125753219
398.241283881
0.0961267237372
0.0754384836064
0.170973653703
0.0125915654766
449.011127563
417.740993045
443.664270181
0.054722348679
0.216689518001
0.0320441246357
0.0564799292244
511.226981195
470.274921689
501.626909422
0.0831139686871
0.121723833035
0.109661116075
0.0395320794657
576.089343727
533.93081059
566.426484008
0.0249860526965
0.570150753829
0.207776786601
0.558150287725
652.986400693
599.369615365
651.421570962
1.7361840784
4.62626938482
2.07049135281
4.73453663041
715.995357862
697.146790947
711.219300241
6.86516076013
8.89319649866
6.90702336262
8.78513979608
382.637593393
374.993503164
0.595534707325
0.359859205551
0.545066160213
0.0832320292853
402.478481479
386.018467492
397.795531653
0.0344329641771
0.0128996169124
0.019986488346
0.00687467416666
437.382861991
409.587837406
426.085679451
0.00261569629835
-0.00810849498967
-0.0012298548814
-0.0232221764836
491.176803239
446.746852388
475.912503661
-0.026651980356
0.173647863987
-0.0167542126171
0.367451625925
560.539704234
513.315237446
554.841420188
0.367221288376
1.23218420986
0.998630301347
1.83812377299
661.09350665
605.487752155
674.037689302
2.69551829464
5.42173597463
3.78516746794
6.15327858264
709.748194413
711.46569517
713.320403343
7.22670777533
8.9210525364
7.67985669199
9.1037762641
469.401225264
1.17461704653
557.642987677
1.37343273414
2.12839398131
1.28765107917
1.2596683496
679.423222055
3.92425143222
6.5049017786
2.83567319998
5.97996353336
718.483673745
8.30358322713
9.89742544242
8.27947712187
10.2548954574
19533.2444211
19532.0320463
18088.4360689
18249.3638069
19533.0980502
18328.9621143
19530.30418
19534.4025897
19534.7870312
18265.4013692
18147.3031978
19534.0455351
19532.9074492
18354.2706153
19536.1670914
19534.0820383
18316.6561461
18249.6839563
19534.1096245
18328.6244479
19536.1764835
19536.9902397
19540.0312225
18345.2957578
18334.5360667
19537.6659789
18340.6865781
19538.0476846
19536.5865274
19537.1287212
18257.9821467
18326.686669
19534.5679137
19538.2324272
18340.2986987
19538.2353827
19541.1444425
18345.5584292
18335.3813542
19539.26164
19539.5020072
18358.2308475
19540.6022636
19541.4895464
18381.1662184
18357.2202075
19538.8468114
18400.8058474
19542.7311983
19542.300374
19545.7128434
18422.1043911
18439.183677
19543.8057278
18419.822453
19544.1954557
19541.9739388
19542.3137654
18361.0142524
18379.0559323
19540.4600243
19543.155869
18397.3459811
19543.2898692
19545.4533759
18420.1174826
18397.3102747
19544.4864395
19544.1368831
18409.4476085
19547.067751
19547.0327956
18480.9369274
18471.0536374
19545.6203188
18476.240798
19547.8564602
19548.1856389
19549.5694786
18494.09815
18445.2585006
19549.2652509
18456.9222155
19548.5789979
19547.0798223
19546.4861689
18451.0747336
18444.3297485
19545.7509766
19547.2410269
18462.3743914
19548.3098754
19548.7254746
18444.9714268
18460.1116267
19549.1501083
19547.986979
18450.2728962
19550.4923876
19550.1873302
18414.29512
18454.2367712
19549.9916776
18454.4325896
19550.8429858
19551.1684431
19553.213021
18428.9951874
18407.9185547
19552.2872477
18424.5977625
19551.9819761
19551.1091869
19549.5049961
18454.1286914
18430.9064222
19550.0140831
19550.457914
18452.9053786
19552.1104075
19552.9478334
18410.3186868
18441.4068471
19553.1222349
19551.7302662
18422.1033425
19555.3800955
19554.4927396
18419.4264565
18423.0179143
19553.7767864
18433.0776269
19555.8716034
19557.0564261
19559.6561976
18433.8126438
18428.8600174
19559.1114663
18426.274816
19557.6971404
19555.5207811
19554.2612826
18427.5016408
18421.4463031
19554.1909309
19555.9180159
18435.3205162
19557.2399887
19559.9571326
18430.830708
18446.9036786
19559.3247457
19557.913815
18427.3835509
19563.4918407
19561.5653998
18444.1540733
18454.1307066
19561.3293256
18464.8632535
19563.6600726
19565.5682787
19567.3718105
18468.4788173
18471.6932437
19567.7456807
18463.2294854
19565.6810021
19563.5820577
19561.8638284
18460.9737516
18469.2431845
19561.4573466
19564.0076051
18474.639741
19565.6038267
19568.3548767
18481.7061682
18504.4508502
19567.8142286
19566.28137
18473.7603587
19570.860396
19568.8691782
18494.8534791
18502.6446239
19569.4877261
18516.3299623
19570.0144879
19570.5325834
19568.2913762
18483.3231721
18413.2743472
19568.0022351
18493.1074483
19570.0609032
19570.4743622
19569.8546295
18512.8558165
18529.102394
19569.4988403
19570.7361584
18527.2837616
19569.7330253
19567.3880994
18392.6575341
18465.8897901
19566.8668079
19569.7989323
18487.6172463
19558.2786186
19564.4653313
18184.2049568
18268.1485555
19563.4669668
18161.4234304
19558.4443257
19552.0361583
19550.1251461
18008.1665121
17746.5088978
18060.2096587
19552.0556787
19550.997147
19557.6731962
19563.7642362
18245.9613475
18162.9697735
19562.356224
19558.7549993
18146.5256034
19552.4486486
19553.22514
17785.6485585
18014.4748502
19552.847173
18064.474366
19552.8220119
19553.0258241
19560.7468653
18670.2429595
18690.4958603
19551.0513851
18868.41538
19555.6355081
19549.3254997
19540.1478858
18327.1146877
18444.8399107
19541.8782908
19542.6107632
18829.437361
19553.2973236
19557.6237211
18673.6944748
18650.4260627
19551.3733027
18842.1639712
19554.4046728
19550.2598469
19545.2247216
18482.9415175
18404.1269066
19544.2835889
19545.3854505
18822.2873248
19536.8338372
19538.8391887
18314.8276427
18195.1825181
19534.6282193
19535.9333082
18359.4442673
19539.304237
19535.5065635
18183.5060867
18334.1769995
19533.7407689
19538.5509958
18444.1489664
19539.0094521
19544.3341733
18249.9516714
18423.1210606
19538.413919
19540.9311436
18390.198099
19540.5813895
19540.7871467
18371.3476435
18291.2616157
19539.1890865
19540.2860745
18478.37165
19539.7795326
19537.8369006
18339.7525708
18293.8395673
19538.5369188
19538.3846954
18373.0006383
19541.1695178
19541.085777
18338.8744805
18379.3962716
19539.464648
19541.7263224
18406.1309627
19540.0938685
19542.4786931
18319.973757
18410.8152357
19538.5912502
19542.6518386
18391.34779
19541.8707277
19543.9943611
18408.261833
18379.8521759
19542.5398323
19542.9996546
18434.3464247
19543.6316386
19542.4295766
18389.3920389
18375.774694
19543.0566966
19542.4492701
18419.2670227
19544.5979842
19544.9189756
18402.4405471
18427.9267484
19543.7699223
19545.2861321
18438.4640383
19543.9627003
19545.1000104
18396.7231044
18466.4785524
19542.9719152
19545.4677891
18431.8996167
19544.998003
19546.3968805
18447.1620483
18435.3188272
19545.5698336
19545.680277
18461.9540015
19547.1664533
19545.9908081
18443.2360559
18431.7948733
19546.7153723
19546.0926074
18457.8978326
19548.1211463
19548.7660951
18456.1043199
18445.2884661
19547.6137148
19548.7960008
18457.1195266
19546.9234218
19547.4076857
18439.7193661
18477.4916634
19546.1225763
19547.9546998
18460.9652411
19547.943757
19549.3857332
18449.7739967
18458.6916574
19548.6709848
19548.5154005
18465.7284821
19550.8338084
19549.9310185
18433.3392137
18453.6506978
19550.8384361
19549.793051
18459.529353
19551.8906768
19553.058129
18444.3539744
18432.2242312
19551.9080709
19553.0309336
18443.0055973
19550.5867647
19550.5016277
18453.1300286
18456.234027
19549.5428534
19551.3159557
18463.108772
19551.8637454
19553.8062718
18438.7337384
18460.42196
19553.0421848
19552.4311488
18452.1659981
19556.3309311
19554.370185
18427.8582338
18448.6514938
19555.9690315
19554.603901
18459.2196768
19557.9953506
19559.6811392
18451.6699944
18452.4991315
19557.7990721
19559.8792575
18451.1104585
19556.2150822
19555.3370969
18452.8499457
18466.348701
19554.4848892
19556.8514681
18467.5985857
19558.0571123
19560.6702254
18466.478764
18482.6556497
19559.9973008
19558.6563221
18463.9551217
19564.3071567
19561.5956391
18473.7015152
18482.8367303
19563.7539052
19562.0669498
18510.9684416
19566.3404587
19568.1136375
18510.7595808
18526.3731462
19566.0514426
19568.3038311
18515.331393
19564.2266221
19562.5838676
18494.7392364
18515.1246737
19562.0212156
19564.5826869
18520.0311528
19566.2906893
19568.6330284
18532.5585162
18542.4667416
19568.3159982
19566.6938646
18523.5340485
19570.744642
19569.5042078
18536.2902852
18558.8778193
19570.2736467
19570.0530781
18564.878691
19569.6145123
19566.3045903
18464.4195844
18383.7521255
19569.1198401
19566.2175765
18509.5527889
19570.7804747
19570.0158393
18562.251207
18573.8116381
19569.9918208
19570.8539587
18575.8431164
19569.7908212
19567.5300344
18403.7168416
18512.9363283
19566.5204288
19570.0613955
18523.9489627
19557.105707
19562.3750281
18158.518486
18218.3693575
19557.3614649
19561.5937401
18125.7635821
19552.6325722
19552.7201096
18023.3555298
17835.9860834
19551.9150032
18066.0572789
19553.7203481
19557.3544416
19563.6947416
18238.756554
18199.7368957
19561.8212095
19558.7156834
18141.7001517
19552.9559305
19554.1219526
17847.6776363
18061.5927312
19553.338789
18078.8168433
19554.02652
19552.8369206
19557.6119054
18657.3706195
18593.6269874
19552.0115716
18732.4036746
19552.6871402
19551.0904023
19546.5181113
18425.6765374
18532.5175956
19546.4008041
19546.9873768
18749.7521707
19552.3697579
19555.5790217
18579.9678077
18647.5473539
19552.225199
18690.9829615
19551.9209132
19551.5149331
19549.0406654
18553.5311893
18462.7296032
19548.017953
19549.7091769
18729.434339
19544.3306813
19546.3663641
18453.7757435
18349.6483433
19543.5105283
19545.0969256
18447.9795764
19544.5213423
19542.0615708
18323.7310367
18457.0578854
19541.9455974
19543.1642476
18538.4930766
19544.8314468
19549.1341331
18380.6778302
18549.6427033
19545.7348309
19546.8854497
18455.6086687
19545.7521212
19545.5696067
18489.8876548
18413.4076893
19544.3877636
19545.6632289
18556.9095907
19544.1014362
19543.8668418
18439.0290024
18382.8913083
19543.9231896
19543.2151949
18440.9847027
19545.0420348
19544.2949273
18407.9187937
18499.7658419
19543.6608141
19545.2501446
18516.9200534
19544.4054097
19546.5301498
18411.0577081
18559.8851449
19543.848763
19546.4429229
18458.4117757
19545.6609238
19546.8305674
18534.457617
18498.4418563
19545.9969691
19546.490988
18541.8276809
19546.1850165
19545.4605995
18498.0431461
18471.7812781
19545.9126924
19545.7282933
18495.0111791
19546.9536171
19546.3287126