/*--------------------------------*- C++ -*----------------------------------*\
| =========                 |                                                 |
| \\      /  F ield         | OpenFOAM: The Open Source CFD Toolbox           |
|  \\    /   O peration     | Version:  v1906                                 |
|   \\  /    A nd           | Web:      www.OpenFOAM.com                      |
|    \\/     M anipulation  |                                                 |
\*---------------------------------------------------------------------------*/
FoamFile
{
    version     2.0;
    format      ascii;
    class       volScalarField;
    location    "11.6";
    object      p_rgh;
}
// * * * * * * * * * * * * * * * * * * * * * * * * * * * * * * * * * * * * * //

dimensions      [1 -1 -2 0 0 0 0];


internalField   nonuniform List<scalar> 
28582
(
19546.9089062
19545.0749185
19546.5177391
19544.6820368
19545.3040584
19543.2743637
19543.9461808
19541.8463582
1271.27011453
1326.52059289
-0.0985760234528
19542.5550157
16948.6529929
16870.9683047
19541.9628453
19541.6824657
16876.6254262
19501.8810904
19503.9471838
19548.8511961
19544.0519055
19543.9864199
19548.8868242
19543.9376563
19543.9574915
19548.7406384
19542.8102833
19549.6779587
19542.4036621
1339.15878747
-0.105603349346
-0.0360363429243
19546.626239
19546.3414247
17135.7203028
17035.2375917
19521.7548948
19542.6879056
19542.2169391
19542.8858609
19504.7055511
16864.7863909
19506.1963532
19510.0453998
1290.09465146
1318.39218141
6.27166786417
9.28001107824
1313.57345467
9.17829871463
19512.9064147
19510.0378562
16902.6501505
16959.0580225
19513.8709885
16910.1977558
19508.7426219
19505.9346958
19500.3076773
16882.4308317
16875.5397095
19501.8741628
16882.6652956
19504.8320099
19498.5451332
19497.2553326
16889.907772
16870.3301733
19498.4738362
16872.0598839
19497.9407089
19501.9072327
16923.8034631
16886.733215
19499.7270969
16901.2219768
16877.4757388
19499.5745202
19505.5043988
16883.1611598
16880.1063198
19502.5321786
16875.4099802
19504.4841399
16871.4033338
1272.87830853
10.8455488711
1267.16611805
1271.60732484
9.46797649425
10.1386951284
1341.1222774
6.2444897841
8.56181059111
1358.14016304
6.75404888634
1351.80584963
7.47896775683
19525.723685
19527.3119281
17098.2378564
17145.5023024
19524.6930136
19528.7571656
17098.6830903
19521.4899653
19515.5286506
17071.9529342
17014.6060474
19520.7806133
19515.6289793
17063.7847437
17045.8147323
16987.7761094
19516.5420057
19521.5607734
17000.3715874
19516.3874453
17050.9970306
19504.0573006
16917.8402851
16893.2773567
19507.4410168
16904.2134421
19505.7357988
16893.3007787
19510.0599202
19507.5056488
16888.0390369
16876.3766988
19507.1795414
19511.971012
16888.4606849
19508.5935911
19506.9985878
16890.2980604
16886.9123542
16898.5041614
19508.4271038
16902.4428342
16906.1494015
16906.9915883
19511.2367596
19511.1106735
16880.6751848
19511.3888193
16900.3142519
19542.7473544
19542.77384
1373.90927262
-0.0603446732707
19543.9872753
16937.7162998
19543.32128
19543.375299
16840.2088141
16896.8071155
16776.3309615
19543.0987305
19542.9092735
16742.0593101
16703.1485175
1283.90159047
1378.67086286
1408.2904913
6.88476316511
6.91615798818
6.94432642024
1437.61794155
1461.36019754
19505.1302755
19511.2706132
16947.7030758
16890.3404185
19510.6879332
16898.9680857
19505.7376121
19512.3742152
19507.4407273
16815.2884854
16856.9562128
19507.4278367
19512.5448064
16832.8853459
19510.2146085
19511.9395045
16854.5066099
16865.3093469
19511.0455445
16824.998637
19511.3033145
19509.1904112
19508.1802906
16769.6242879
16823.7413883
19508.5249685
16795.3309873
19509.8339045
19508.8310295
19506.3618092
16745.7503243
16724.7631121
19508.4115173
16722.4516246
19505.9277655
19509.6266165
19506.5923275
16701.2682438
16713.8768028
19510.7809909
16702.9512098
19506.1664418
19553.7727683
19553.7612842
19560.3110545
19559.4048637
1062.47535666
1226.89552358
1031.3991599
1168.74204331
1154.03434484
-0.161026029938
0.0164457517934
-0.124656929509
-0.158754940767
-0.12022386675
-0.104589946421
19548.3054661
19548.3459577
17235.7482292
17298.5345033
19554.684683
17305.1118254
19548.7705918
19549.5345208
17344.9568146
17480.3932881
19559.5779094
19553.9109687
19558.6806126
17343.3162351
17425.1536889
17489.1824193
17520.3600294
19561.8852086
19562.3681501
17446.764062
17502.5587691
17520.0881368
17496.5656948
19557.8448501
19557.6286066
17504.4324804
17528.2220703
17565.0356236
19560.9313031
19559.6152533
19560.132336
17525.8203003
17496.9549781
17557.6497776
17509.3282704
17555.6903533
17499.4158378
960.567088656
973.007791047
1075.31698038
7.22249260161
5.08427150154
6.31414914422
4.33858376718
4.21288023744
3.66095171482
2.95059141352
2.79180706281
963.662051869
951.650039646
1149.97345161
1041.10418613
1122.18445819
5.10891552993
3.43156437834
4.94546681499
3.68139025003
1260.11109812
1192.14343737
1226.60374273
1.66491694103
1.79841114175
1.94892989824
1.94982658657
1104.40385876
1101.13735677
4.74759812884
3.62710642815
3.71709212601
1200.28679382
1156.38080936
1185.80838109
2.54745382194
2.08570016119
2.95886353667
2.58407444078
19519.0378691
19522.6104839
17217.8080705
17223.5953135
19522.3217398
17216.9100023
19520.2280833
19521.1817284
19525.3177357
17259.6566838
17303.4540463
19523.1763981
19522.5055754
17261.5907117
19533.420954
19529.2339606
17271.1333088
17330.9129707
19528.0298309
19533.3734429
17313.6541271
19526.925925
19527.48697
17351.2961016
17404.9964119
19524.8195294
19528.9109392
17397.128701
19530.2066783
19533.5077032
17448.1052551
17471.8686938
19532.0547565
19531.5436025
17439.7550991
19533.2611398
19530.0127595
17362.8084244
17402.4129124
19533.1278954
19531.0551474
17411.0308826
19536.9934799
19542.9088195
17393.4074532
17466.5919317
19537.9743913
19541.6232844
17431.2506785
19535.9801133
19535.796309
17447.3027195
17496.2252233
19534.348738
19537.5614616
17451.0910431
19538.0082533
19542.2821735
17484.5519698
17505.2566139
19541.6986866
19539.7053875
17463.5832456
19549.056739
19546.6440499
17485.9303688
17479.9747203
19549.5761192
19545.8947421
17504.7286974
19550.0768238
19548.9848226
17497.0001909
17504.5216826
19550.7711908
17507.9960527
19548.9472228
19546.993763
19544.2554412
17492.9520437
17522.3211668
19544.8802039
19545.9769688
17507.179713
19547.7112078
19544.5082284
17494.3474929
17513.5078529
19546.3041655
17504.0245548
19546.2920877
19541.3245435
19537.9857252
17510.6449274
17528.7460772
19539.7625224
19539.3157506
17535.8972969
19542.6706667
19542.7487718
17519.4115163
17547.7787132
19541.3240979
19543.9150856
17542.2393173
19543.9744373
19546.0256118
17551.2638874
17562.1004845
19545.1159093
19545.2222174
17547.083198
19544.8054903
19543.6029965
17523.0824533
17541.9978658
19544.3372101
19544.5091498
17534.6464178
19544.0544652
19542.5080565
17512.1179121
17503.3427578
19544.1574007
17520.659215
19542.2991891
19545.6782801
19546.4843685
17545.7060514
17544.981189
19545.635182
19546.5645459
17533.4356778
19545.0009371
19544.3184466
17500.561702
17527.365718
19545.8212214
17517.5807097
19543.4269622
19546.8436736
19547.0814975
17539.2047229
17557.9570695
19546.9419129
19547.2650746
17541.9911411
19545.042015
17520.0384218
19546.2603455
19546.4220092
19544.6158719
19543.8199188
19544.6007071
19545.6404153
19556.1085898
19546.1985864
19544.4940419
19543.8610731
19544.1788624
19544.7306797
19555.6737205
19539.7153583
19542.8194882
19538.9200863
19542.8043195
19546.0807691
19549.2079138
19555.0489408
19534.2730754
19541.2380346
19543.1956687
19543.7927899
19544.2648355
19544.5065434
19544.1090349
19543.3745031
19555.3628439
19545.6891716
19543.9454438
19543.4865857
19543.7135624
19544.1202899
19544.2087831
19544.3445948
19557.1420061
19547.9204337
19545.5344312
19544.2070078
19543.9848735
19544.2204525
19544.2572664
19544.5126768
19557.5752518
19543.8147199
19544.2357626
19545.1293915
19556.9966027
19536.6585656
19540.9121977
19542.1977831
19543.072749
19546.4241393
19552.9964676
19603.3779177
19454.1845114
19540.9837595
19542.9067559
19546.4935303
19546.3505332
19544.6841913
19542.6941272
19539.1017375
19537.58827
19545.1693804
19544.5771927
19544.6924971
19544.3983316
19543.915935
19542.9085906
19541.7977258
19552.2346409
19548.0223413
19545.6708116
19544.6014945
19544.4507529
19544.3616865
19543.3962966
19542.1122981
19554.91528
19543.7377177
19543.5534845
19543.6760081
19556.0806214
19534.5677764
19540.329715
19543.3696457
19541.7080846
19541.6618165
19542.4695955
19545.3048872
19472.6684125
19538.7918587
19542.0332628
19542.5627759
19542.640907
19541.4859902
19537.2546493
19524.8300181
19513.0525255
19546.2142238
19544.9740336
19544.1617783
19543.5975299
19542.3285571
19539.2666672
19531.6776893
19546.7406826
19552.2846706
19548.1660583
19545.2847286
19543.8571031
19543.4097883
19542.3898616
19539.9605814
19535.1334015
19549.7590777
19545.3399227
19543.4124787
19542.6417325
19541.9713179
19540.678501
19538.6298306
19552.7710988
19542.0155941
19540.7199353
19553.2550932
19541.2745941
19544.1253987
19545.941245
19541.1863349
19539.9001273
19544.1513524
19546.0148231
19516.287749
19546.9426031
19545.4209284
19547.1044255
19545.9505214
19542.9109966
19542.6794608
19542.7760948
19538.2260313
19523.3863637
19559.5202633
19552.9659032
19547.9497066
19546.5048097
19546.2249988
19544.7032506
19544.1812946
19542.8873398
19538.4967888
19537.0850259
19554.5244307
19549.3067835
19545.6515388
19544.8076668
19544.9087621
19544.6453857
19542.0842042
19539.2326037
19541.5576874
19544.4130441
19543.194783
19543.2744747
19542.5443462
19541.4350034
19540.2986107
19543.2191248
19542.3939988
19542.3020478
19544.6767225
1121.00571593
1179.42327784
1269.47177706
1335.10407861
1446.10048114
1521.21338802
1524.37754403
1537.4479694
1203.52520698
1142.00137286
1151.60951147
1196.4524311
1247.92792878
1279.42061003
1358.60340726
1418.16452428
1457.49681602
1472.34061174
1198.42550002
1192.94688411
1204.60953155
1215.47535133
1239.76822463
1274.89577872
1299.00835644
1358.35136185
1394.96518267
1429.99477264
1224.09840584
1248.20532397
1247.14771544
1262.86667978
1276.48612179
1291.42241455
1358.02331981
1395.34875806
1436.11222222
1281.99200268
1295.59753474
1290.7889047
1345.48348067
1397.20838606
1443.5077488
1475.15218958
1431.78842605
1478.47387845
1484.56921673
-0.0244008222519
-0.156523873432
-0.161828609204
-0.153214243842
0.540875782262
0.634315527363
-0.113899465634
-0.118730851562
-0.219476779394
0.960075032291
0.395759363509
0.19079790868
-0.15106872425
-0.217227603074
-0.100209290749
1.35348312507
-0.0157552961605
-0.161633738419
-0.21856211599
0.56043990659
0.488576524858
-0.0955574060626
-0.162184831224
-0.12912076412
-0.13727324898
-0.14293953667
0.972763255847
-0.133634722941
-0.259134240716
0.771737587214
-0.0731637863276
-0.14820011241
-0.0541234691613
-0.0841920957667
-0.0828384195924
0.21758857074
-0.142556270941
-0.264781893986
1.01130387099
-0.0669867674609
0.00745018538574
0.978502289468
-0.105071585453
-0.139568666675
-0.261005419064
1.02395351354
-0.102775820131
-0.251794483096
1.23193992925
19541.4453028
19539.9220733
19541.6968595
19538.4541118
19540.5899414
19539.3449446
19540.9361695
19543.3854086
19543.2112091
19543.9807937
19542.5178204
19539.1564445
19542.1867747
19541.3312935
19542.1217411
19543.2230171
19543.0456717
19541.1046176
19542.3191527
19542.9724794
19543.313459
19543.8351004
19543.4505109
19544.0733267
19543.3080579
19543.2460617
19544.1268619
19544.9189368
19539.1620327
19538.0063562
19539.6412904
19534.9580477
19537.6753012
19536.3565881
19538.8715872
19541.4072559
19541.1240928
19542.3709187
19540.1458924
19540.9396952
19541.0786866
19541.2615267
19541.9716717
19542.9304625
19543.5343998
19540.0223695
19540.9903622
19542.990674
19542.2241837
19543.2177316
19544.1849017
19547.4542653
19542.5519641
19539.7847879
19542.4151312
19546.0379676
19537.266663
19536.3888466
19538.5483953
19534.6243844
19536.7043167
19536.8470795
19537.7552451
19541.4452913
19541.5675605
19542.8314003
19540.4902906
19543.4062123
19541.1954331
19545.2885174
19540.07189
19543.176216
19543.2518153
19541.9695652
19542.9577215
19544.7691847
19545.1616607
19540.302751
19543.2867749
19545.5355266
19543.8704369
19543.8501384
19545.4597859
19546.9974528
19541.4058352
19543.2945643
17290.322877
17283.9410722
19541.7340705
19543.6271916
19544.4876277
17296.9023698
17340.3865568
17287.4356264
17305.4742972
19545.9236791
19545.6669329
19546.2003296
17340.4355548
17277.4662693
17299.3935053
17233.7175285
19543.7767548
19545.555619
19543.5069882
17220.4067405
16909.263229
17182.0109116
16932.2341932
19539.6960427
19541.6470686
19540.8753599
16794.3162996
16480.1621002
16872.6219723
16777.4348787
19541.7500073
19541.2185928
19542.1951428
16443.7247514
16498.7078893
16751.6045346
16737.5226242
19546.3566687
19543.4064571
19544.6268581
16558.0593475
16694.9437964
16745.0388351
16750.769615
19535.9472905
19544.119023
19535.5624844
16716.0733823
16611.6774082
16728.4210633
16465.9474129
19500.3398245
19519.811915
19524.5212305
16690.5094412
15629.4339687
16529.1681724
16394.738354
19559.9530247
19555.0285934
17488.2010591
17395.1921488
17471.3756507
17385.1135511
19545.0836512
19550.6545593
19547.842731
17364.7659827
17287.3754516
17354.2592318
17279.8479236
19546.4047204
19546.6107555
19546.7176199
17284.4060781
17293.8817905
17259.694751
17228.846045
19546.9382903
19547.1268307
19547.3061775
17288.8062187
17248.9931123
17212.9644517
17182.939095
19544.2936191
19547.3033564
19546.030961
17197.9812447
16952.8305865
17160.6438848
17053.2840066
19542.5077929
19544.625566
19543.9835545
16938.0817977
16881.8203866
17031.8629348
17002.3715763
19542.9431617
19543.9877964
19543.9213841
16858.1037035
16794.2905046
16998.18404
16983.3727667
19541.6628607
19543.0301463
19540.9803517
16786.1618373
16758.3872534
16968.3990631
16808.8872583
19531.9790979
19538.0747299
19534.348079
16718.1267101
16437.0514263
16742.2017761
16545.4983264
19541.0857695
19530.6475585
19551.5849107
16504.7775489
16435.5259118
16608.3205951
16470.0263933
19556.4958624
19559.3477475
19556.9825921
17473.9262911
17388.5985751
17486.0761547
17397.8443609
19550.0416848
19553.8727596
19551.0676406
17363.9100416
17246.4401594
17354.4161576
17176.6277611
19546.7970366
19548.779028
19546.9728321
17215.8072408
17197.0708379
17147.3447571
17138.6823389
19546.4902305
19546.1488677
19545.7922115
17191.1968776
17170.5174793
17136.8618407
17118.6597032
19545.5535057
19545.6057442
19545.457979
17158.5566667
17077.375509
17104.6391847
17077.0642433
19544.2395125
19545.202829
19545.0435279
17046.2535065
16998.3955895
17066.7922886
17061.5466237
19544.1163283
19544.9552039
19544.3005834
17010.0502382
17027.4676093
17077.6709801
17014.5036657
19540.6683492
19542.7274538
19540.6412679
16971.6285003
16803.1819122
16914.8660047
16749.2340325
19536.9282501
19538.8389801
19538.35138
16757.1811402
16612.0655442
16731.7489053
16663.4180563
19553.9877947
19539.736973
19555.4275924
16669.3282797
16467.2071468
16721.1356826
16469.7064115
17476.6074165
17375.1456371
19551.7871215
19552.2661284
17332.7475282
17165.0605742
17171.5879438
19547.1219509
19549.5396906
19546.9305813
17139.5066978
17122.9931998
17136.4154334
17059.9386798
19544.9758333
19545.0517665
19544.1931061
17112.0749979
17078.8490185
17031.1436579
16948.1320043
19544.8998405
19544.0390982
19544.2769144
17076.5690137
17074.5143054
16964.4493951
17035.8675841
19544.8797811
19544.2965408
19544.0637779
17064.1993908
17070.3647987
17023.4988294
16969.3898034
19543.6334932
19543.631595
19542.7809238
17078.7512028
16959.4228652
16948.9146174
16836.2823751
19540.3905513
19541.7117124
19540.4694235
16888.0373817
16760.7822294
16801.0666764
16715.9676936
19539.4947163
19539.7880993
19540.3324205
16736.8547873
16644.3864079
16693.3442717
16589.4639047
19555.9102766
19542.4686403
19556.0889495
16708.5196365
16471.5662996
16665.1342991
16480.6479853
19543.38081
19542.8581845
16994.3170677
16934.1721542
16870.9953288
19543.3585933
19542.5102679
19542.6738296
16953.4450384
17009.5882873
16884.7470899
16944.1004858
19542.9225973
19542.6893855
19542.5800506
17007.4493053
16922.3103231
16946.0059666
16860.2734722
19542.0278545
19542.4011423
19542.1264843
16894.3414487
16827.995205
16834.0635988
16766.5154844
19540.6952057
19541.689254
19541.214295
16786.435608
16692.2933271
16732.103654
16649.5677471
19540.9706762
19541.0876056
19541.7634363
16676.797949
16581.4958788
16648.9475036
16564.9360264
19556.0541508
19543.7373044
19555.7052908
16666.3817591
16488.5511431
16650.9576812
16495.5551463
19542.6813992
16762.3131071
19542.1668505
16728.1408434
16661.7135817
19542.9768685
16653.7019311
16551.3419678
19555.599831
16641.1054683
16504.9058932
2.64000387253
1.29032357058
2.8742112477
1.40848978571
1091.27112653
1120.22481146
0.487264497961
0.459660153048
0.593387748593
0.609067281472
1149.74408536
1136.25360239
1158.34494324
0.607378266302
0.880131661645
1.02357018698
1.04419207284
1225.31923043
1186.33749321
1225.86871353
1.3465740203
2.42685539706
1.33760923447
2.31300574028
1299.20428496
1255.01165711
1277.85292742
13.7414094914
26.3917069469
13.5082373306
25.4560222714
1378.89280049
1312.09047398
1352.13043646
28.4665533792
25.9936321892
27.0240484683
21.0785766524
1500.08280007
1406.74366215
1441.46251258
14.5331131172
11.402987249
10.3017439643
8.34538567686
1528.7118682
1471.53607552
1486.72372239
10.6363448749
10.0741686367
8.25256618851
8.22340750831
1529.44009836
1491.04284521
1509.4263864
11.4544212337
11.2636147681
8.89320991815
8.94105454527
1595.39934827
1491.77531808
1587.46238423
11.6696418766
32.7599327786
11.3174021615
18.6515962556
1161.79743534
1199.84706691
1180.7158757
6.16175516341
5.94213898628
7.52515594336
7.75752668242
1141.58371548
1175.26986727
1170.44095873
4.74061743186
3.99008988979
2.17370350185
2.35056227646
1169.23427091
1172.21208358
1180.58227795
1.66470070329
1.02494859772
1.47870013385
1.18502268575
1221.36392538
1202.25641165
1222.39389036
0.74680473393
1.20850493189
1.19046661607
2.08947594361
1269.50366108
1240.22738419
1257.87452082
5.9391644143
18.6128586103
5.29584402563
10.9007151599
1313.58453333
1269.92739126
1297.01232586
31.9156014794
23.6117571418
19.3955872255
18.6592969498
1386.40668482
1329.84830857
1350.36912531
8.97228084786
6.89689756249
7.90449798896
5.69638246795
1441.13974675
1375.08482556
1402.70409853
5.94679166426
4.78835278993
4.54279849856
4.32566211492
1485.88783878
1421.89916815
1445.93380706
5.54299787961
5.66066687907
4.12559794235
4.45634660547
1577.65079309
1446.82630987
1547.30104631
8.96269771188
15.2233490347
7.90482909274
16.5040569219
1187.65691461
1194.34037488
1191.44805847
6.68924039004
6.08933208474
6.81792267259
8.6295455329
1200.31902272
1209.47647718
1221.07292821
0.831736815629
2.31735774047
2.26299555982
4.80819997747
1206.42969339
1229.12182701
1226.58987595
2.48388845846
1.55663202236
4.79635769993
3.71642848416
1227.86952001
1229.65470448
1238.84684246
2.07867449172
2.94222901554
3.25780351806
4.16005060841
1254.92782513
1248.15935878
1258.83141029
4.64692062913
5.5911073175
4.95612610415
4.90690122094
1287.87705386
1269.98837955
1275.55018846
6.44310026393
10.1434578893
5.89275596734
9.41664712087
1325.05273879
1281.28517993
1312.15272915
17.192287589
11.987444146
20.3102111257
19.3580885901
1379.04091676
1352.75534165
1369.97058083
5.4918533978
4.51448189374
6.3963416824
4.55831048862
1418.39882166
1387.41515767
1410.40756952
4.09642669334
4.30415190543
4.03908541568
4.14686571914
1517.01169109
1426.37605377
1506.26746827
7.92404493885
19.8514602707
7.53643797082
24.3188159508
1241.45816134
1253.35728987
4.07329323373
6.76677596676
8.20471544439
1245.43029418
1261.48088779
1262.38040569
6.52661859858
6.07057510709
8.27933778605
8.35975561839
1256.86570146
1266.9605848
1276.2467574
6.43546477758
6.87408022694
9.63253292957
10.5930000783
1268.66869027
1280.70416733
1284.12027503
7.56724195411
7.78124196049
11.4381956025
12.5521161851
1279.84864223
1293.24673231
1299.60215116
8.15459739435
10.6926102092
12.352200862
12.4328770577
1319.56823712
1309.94706397
1343.00521872
16.2702421097
16.9722309568
15.6407170698
13.236970974
1376.34869518
1376.49879334
1398.74147768
6.55775426449
4.84774191023
6.56348485091
5.27510539101
1421.30479176
1417.83813797
1447.12159688
4.26336123828
4.33587145501
4.60880854582
4.68091218673
1506.76790969
1454.72109993
1518.047576
7.62814699806
27.6048574662
7.90488325423
29.6226563072
1290.5095234
1298.35253502
12.0437999813
12.3369463485
13.5356403538
13.7295573994
1297.32379064
1309.0559835
1307.7186638
11.5859226671
15.757067531
12.0886003255
15.7325570762
1317.67024369
1305.10457772
1336.51181547
26.6519233018
14.1017913623
24.8399107902
11.6295652852
1371.8343318
1367.06289645
1393.38576692
7.6743931597
7.37645085385
6.85265692816
7.23741487878
1423.65363611
1421.26435141
1449.21506877
7.47873369022
7.59505609906
8.10192134158
9.03509279715
1476.26324864
1468.52634154
1498.80764
6.88846382123
6.61247589433
8.24519633719
8.48800013853
1525.63244563
1487.77864087
1533.95066074
9.02588126076
29.1633306547
10.8120842369
28.889616005
1402.21398632
7.17002766313
1460.75164657
7.77689950189
8.77126108351
7.25522610356
7.13721477113
1506.49529411
8.5055765593
8.91537150643
6.48158520073
7.11436389997
1529.95486345
11.8613568455
30.5355792287
10.7919374039
32.6051143182
19525.387768
19528.6103913
17298.8797089
17294.3338428
19527.3815544
17305.3542836
19525.4852577
19524.990785
19526.8669264
17280.0902527
17299.7341639
19526.7780516
19525.4976776
17286.3842589
19533.6921463
19532.0000343
17310.515491
17299.8891326
19530.672614
17312.443305
19534.4932122
19535.6423941
19537.6432674
17318.8767659
17333.904747
19536.9673944
17319.4268439
19536.2448141
19533.2096783
19529.3445581
17286.675698
17300.2477028
19529.8710489
19532.2221675
17300.956968
19535.2606781
19535.5166501
17323.5432357
17302.2161187
19536.5125954
19534.3447663
17308.8035686
19537.7072677
19538.6162938
17335.1438137
17331.3507113
19537.8782248
17325.0520376
19538.8524438
19535.9415021
19535.0426484
17310.2610829
17263.6422674
19533.3355636
17300.7787236
19537.7461162
19537.2532364
19536.2426373
17321.8417437
17289.6946112
19537.3408782
19536.2895019
17315.7645279
19535.7061971
19532.9195667
17246.3730093
17264.1512039
19533.1018834
19535.1855576
17289.4811879
19526.8384291
19532.1179901
17140.9097631
17203.0142021
19530.149359
17113.3369544
19528.1402047
19522.29045
19515.9338038
17036.730396
16899.2321219
19516.3595268
17009.3808945
19522.843224
19526.9671953
19530.24232
17186.904759
17105.5179602
19529.7095857
19527.3655844
17106.4940875
19523.6057437
19520.5841632
16925.9049506
17020.331548
19519.2876893
19524.3064418
17019.0964576
19503.9379877
19507.9028344
16664.3820246
16800.0529139
19510.4651264
16700.8224914
19499.5495295
19498.0118346
19487.5377609
16575.8510056
16559.0200861
19493.8548953
16626.0391009
19492.0909263
19509.7325794
19516.8464141
16855.3182305
16822.3072379
19514.6395159
19513.3409941
16771.7988792
19504.8459856
19505.3126354
16677.8721407
16800.8657838
19500.3701081
19509.4309637
16722.4441517
19488.6623039
19482.7947083
16436.9866759
16533.6694753
19489.2253074
16526.3890856
19483.9556657
19491.0271781
19492.4923981
16453.7035981
16569.4575061
19495.0884601
16537.7285759
19487.1035293
19493.1865863
19499.7079974
16645.8586979
16729.2440181
19494.5667291
19496.7479623
16621.8452407
19494.7761876
19499.5288356
16642.4192356
16729.4673732
19497.9173058
19497.5473612
16626.4681267
19506.8152961
19499.1325752
16618.2432282
16614.1424805
19500.4984181
16665.2747013
19506.2246293
19512.2369877
19517.3621267
16657.2394703
16718.6443068
19516.7347075
16691.6853738
19512.174005
19507.8700102
19503.1491191
16661.9336647
16754.033475
19502.5644338
19507.8421127
16687.3847278
19512.6433988
19514.2570788
16720.7072485
16753.4890563
19515.7616438
19512.1394747
16703.3455469
19515.1308822
19518.9708262
16720.3191677
16715.3922757
19517.1660378
16698.6811281
19518.1529332
19508.9466157
19505.5092615
16677.4427712
16538.4629882
19500.3398149
16638.8414205
19513.4768583
19511.7121899
19512.0614149
16710.5023325
16685.7967019
19514.7489385
19507.9562294
16686.100316
19503.9678788
19491.5944402
16498.0374402
16595.3916542
19494.6045917
19499.8304007
16612.2602554
19460.9798328
19490.0289663
16624.6024772
16588.2059779
19485.4623642
16549.5669649
19460.9514528
19392.2559254
19347.8588331
16362.4969462
16394.3533439
16246.2745706
19393.3467041
19370.437665
19461.1022958
19481.6133836
16565.8807091
16488.9046141
19482.0979783
19464.657568
16501.3573709
19406.3940217
19453.7221378
16362.526861
15929.3555042
19421.0597451
15873.8953445
19433.6002655
19539.6857911
19544.6959419
17462.5401447
17485.9609022
19539.4813944
17455.1217257
19545.2971973
19534.1621263
19529.4037321
17431.231854
17390.5782633
19534.296024
19529.8673434
17424.806045
19537.6276134
19540.8839981
17472.5553239
17444.1176794
19536.5054723
17445.8197488
19542.5606287
19532.9652074
19529.9763966
17387.9874075
17416.5886359
19529.6850177
19532.9516135
17417.927701
19525.2033253
19526.3134008
17332.1613728
17362.2363658
19524.5131148
19527.1522708
17332.3919503
19524.308099
19524.868058
17306.0579213
17288.844767
19524.0514888
19524.7882422
17307.3669339
19525.3451784
19527.8694431
17358.953087
17327.9999369
19527.2929349
19526.2363676
17333.4991319
19524.191239
19525.0666953
17291.7059104
17304.8654687
19524.0629632
19525.2212251
17312.2581224
19527.6616246
19526.6718454
17288.3127454
17279.3218849
19529.0303642
19526.1389187
17271.2896664
19528.9380593
19532.0220045
17292.669228
17265.7188142
19530.922139
19530.1320709
17266.4911394
19526.0955007
19525.8455664
17278.0570376
17241.6994667
19524.8196646
19526.9034059
17264.1622071
19527.3568409
19528.0017604
17249.0347356
17238.3207376
19528.2040089
19527.7059867
17254.8395616
19531.0185848
19532.741559
17276.9388506
17259.3327455
19532.6900838
19530.8975966
17247.2628699
19530.1417958
19529.1666003
17264.5383209
17221.4245054
19531.4904485
19528.3268354
17232.0755676
19528.7985692
19528.1956755
17243.2586091
17199.8479754
19528.7203148
19528.0830968
17233.7159477
19528.0409632
19525.6714643
17209.9652654
17190.1753364
19526.3032185
19527.3233242
17220.3194176
19523.27285
19526.612342
17115.9574974
17180.6953306
19523.5701525
19525.8512502
17123.5806238
19519.6869647
19516.2134044
17035.0185063
16978.4779343
19519.9012121
19516.1201155
17054.4679665
19520.8759193
19523.4884085
17180.9195426
17127.2469903
19523.7822561
19520.8422658
17143.0730946
19517.6127748
19515.0512524
17035.5613407
17092.378084
19514.3053605
19517.9899345
17094.8795185
19508.9847789
19512.5606115
16919.7207554
16961.7019366
19508.786365
19512.7550473
16950.19897
19504.9106073
19500.5714791
16902.206436
16929.9883206
19504.8800537
19500.3801801
16939.576851
19508.9719312
19512.2984291
17015.9179142
17012.7067673
19511.4937361
19509.8709639
16994.9375818
19506.5722962
19505.4103634
16980.0156223
17000.9221848
19503.9671847
19507.3505951
16985.1805413
19493.8244231
19495.3519763
16830.8448624
16914.346007
19492.4474998
19495.6647371
16896.3721934
19494.1218081
19494.8858081
16806.8660268
16880.6379394
19493.0923023
19495.0857565
16884.8852552
19501.9877519
19505.0096338
16965.54983
16992.0864116
19502.0989911
19505.3055185
16943.987787
19502.2580587
19506.6199246
16920.4956261
16987.3294643
19502.9797703
19505.6918981
16929.3219279
19500.7936332
19498.0775945
16782.519625
16869.7106718
19502.9350108
19497.1704555
16854.0381754
19503.1589349
19504.6916762
16775.0050488
16800.8823095
19505.9912505
19501.3407543
16834.1411407
19507.6527906
19508.4966766
16904.8081249
16936.840109
19504.8788277
19509.9889266
16883.8103723
19507.8202543
19505.8154826
16793.6414028
16879.8509047
19505.5059444
19508.488059
16841.653081
19491.1777505
19500.7274544
16671.786133
16749.5740877
19494.4066889
19497.0474917
16680.1494472
19482.9041492
19477.7454775
16572.1373927
16447.130967
19484.8966448
19475.9818945
16575.9239261
19497.4285113
19502.248187
16736.6648851
16673.4630878
19501.8257768
19498.1961531
16678.5775416
19491.3520297
19489.42108
16511.8728892
16618.522445
19486.1425507
19493.3773988
16606.8231632
19456.3708905
19470.3885822
16478.8605356
16515.5257025
19456.9176128
19468.9190355
16499.2051083
19426.1278213
19459.8524325
15929.125035
16440.7378878
19422.2868935
15984.8115662
19465.2876199
19468.7746152
19484.5166755
16574.2182067
16585.7353036
19480.3899072
19473.2797604
16553.4686394
19440.8478426
19480.507728
16462.3755459
16056.300155
19445.6361657
16030.4616677
19476.91544
19535.5418655
19539.5477188
17446.6729071
17479.6479018
19535.6762195
17451.0084139
19539.3364564
19532.5370458
19530.3010921
17417.0677728
17397.1081231
19532.5526575
19530.5339037
17423.6291593
19537.5527031
19541.8826199
17479.471365
17459.0060495
19538.4804171
17451.1870986
19540.9374132
19534.3085688
19532.6417348
17397.4346676
17430.2389667
19531.5034182
19535.5253475
17422.9632524
19527.5354367
19528.4507495
17345.3868647
17364.6760379
19527.1479305
19529.09086
17337.8682398
19526.6368516
19526.0102446
17299.1085962
17220.3378246
19526.106849
19526.6517301
17284.4697304
19527.9970155
19530.7506301
17356.8064706
17307.5388533
19529.7545278
19528.7562382
17321.8823398
19526.9002513
19526.9303729
17203.6892241
17241.3071715
19526.8909661
19527.3828839
17264.6613308
19526.340043
19526.701113
17193.3758044
17186.532314
19527.1774012
19526.391935
17157.7377574
19526.297954
19527.3032968
17198.0999245
17161.5643334
19527.248361
19526.5048741
17159.3738431
19525.8841747
19525.9880477
17167.919111
17129.1626141
19526.4269837
19525.5088229
17141.6520298
19525.2745073
19524.171001
17152.981529
17138.1305275
19524.7170084
19525.0046218
17147.8562232
19526.3909527
19527.3055311
17184.7502424
17163.5564993
19526.8284937
19526.6958392
17160.5269951
19525.3686196
19524.1312866
17178.6478216
17140.9132495
19525.7962057
19523.8911845
17151.3737919
19523.0534106
19522.6969372
17153.0252361
17137.7177707
19524.0330682
19521.344752
17148.3338315
19522.1545803
19519.6938698
17130.71729
17130.0925957
19521.328046
19520.483147