/*--------------------------------*- C++ -*----------------------------------*\
| =========                 |                                                 |
| \\      /  F ield         | OpenFOAM: The Open Source CFD Toolbox           |
|  \\    /   O peration     | Version:  v1906                                 |
|   \\  /    A nd           | Web:      www.OpenFOAM.com                      |
|    \\/     M anipulation  |                                                 |
\*---------------------------------------------------------------------------*/
FoamFile
{
    version     2.0;
    format      ascii;
    class       surfaceScalarField;
    location    "4.4";
    object      alphaPhi0.water;
}
// * * * * * * * * * * * * * * * * * * * * * * * * * * * * * * * * * * * * * //

dimensions      [0 3 -1 0 0 0 0];
oriented        oriented;


internalField   nonuniform List<scalar> 
92311
(
0.201862555531
-0.000128501535398
0.000269465786613
-0.201797663963
-0.000205591924925
-0.000173202904902
0.201760835245
0.00096949686883
-0.000694312965368
0.201838084902
-0.000240728334782
0.000269230315069
-0.201782762305
-0.000211992533545
-0.000347636449475
0.201740569415
0.000980633902926
-0.00070837218135
0.20171461858
-8.90536073186e-05
-8.52491628762e-05
0.000234767995057
-0.201741845475
-0.000210830936709
-3.63542145296e-05
-2.66545443613e-05
-0.000125418854143
-0.000153502968578
-7.95174090757e-05
0.201573288486
0.000982821330953
-0.000764769560615
-6.57503550586e-05
0.0504683292706
-1.47855999916e-05
-1.39647096211e-05
-1.76022048164e-05
-1.31526464909e-05
-1.74361269209e-05
-0.050471797085
-8.66801205102e-06
-0.0504474862781
0.0503996079676
-1.71223140957e-05
-2.19042561001e-05
-1.90401820823e-05
-2.20110722814e-05
0.000123091639028
-0.000120617207901
2.62835153617e-06
0.000748656531565
1.957074181e-06
1.32917095927e-06
7.42663440147e-07
-6.85321930812e-06
-0.000779231758592
-6.01586364308e-08
5.82973770393e-05
0.000575549910231
0.000180649945275
1.28416782355e-06
-0.000642424506741
1.86850443469e-06
6.13490571664e-07
1.11817797135e-06
-1.77073075904e-06
-0.000130257992348
-7.29673122323e-08
-6.55634221586e-08
-9.20160642876e-08
-4.44242689066e-08
1.24994735092e-09
3.35822119859e-08
-1.33820857892e-09
2.91819472847e-09
-1.54391849361e-05
-1.30364335884e-05
-9.97991996926e-06
-1.42980269845e-05
4.56338881113e-05
-5.73119012072e-05
1.13773591526e-05
0.011690347386
3.97003920854e-05
-1.82458392579e-05
-0.0117055793669
0.0116571519821
-8.20801611356e-07
2.40154621953e-06
-0.0116663670996
2.10277156521e-05
-5.10677764764e-06
-0.000188494490923
-3.05732601794e-05
0.0503641765781
-3.64652341092e-05
-2.7166826481e-05
-3.22793212415e-05
0.000196881948446
-1.10590980683e-05
0.0502871626442
-1.27566825364e-05
-8.5168497433e-06
-8.54914719655e-06
-0.050323485096
-0.000190931451738
-3.18964699755e-07
8.31909029704e-06
0.0116382317896
1.63922091443e-05
-2.28791652002e-06
-5.00886079521e-05
0.0125635534164
4.33197083635e-05
-1.80486792621e-05
-0.0125699173384
0.0125544928542
-4.72004988699e-05
-7.09748326255e-06
-0.0125617289329
-0.000101693926475
0.202331892904
-0.00062143236744
0.000487546231983
-0.202096088567
0.20168933629
-0.000225041249278
0.00130489708577
-0.00100812305806
-0.000237918254812
0.201621321532
0.00142652654793
-0.00112046309827
-0.000160098162907
0.202307151274
-0.000574907145621
0.000506621791958
-0.20218024463
0.201690793382
-0.000515820221922
0.0013388620217
-0.000997961403773
-0.000565747598002
0.20167875543
0.00147924462922
-0.0011389892961
-7.37826581121e-05
-5.97225443252e-05
-2.61689924009e-05
-0.000641409385971
0.202232549015
0.000540499701514
-0.20210249077
-2.95803925613e-05
-0.000219923283903
-0.000289587718845
-0.000158555437332
-0.000216483595117
0.201650777361
0.00140350231504
-0.00111199994812
0.0505865787648
-2.41850893557e-06
-1.72807586577e-05
-1.21510875098e-05
-3.84129988303e-06
-0.000294319148843
-0.0505654520266
0.000235036828886
0.0503497447127
-0.000260965490567
-4.72687250367e-05
-4.79903242356e-05
-5.84494880445e-05
-6.17459062297e-05
0.000270876018556
0.000249913106722
2.16528961565e-06
0.000485692112657
2.5454660613e-06
1.61616979787e-06
4.05247573685e-06
3.13761716659e-06
-0.000203827673869
-6.74119365213e-09
7.05471868296e-10
-9.89058597918e-09
-4.29234455692e-09
-6.14347169236e-09
-1.34816086478e-08
7.65956167748e-09
2.23535180554e-08
-6.01726845973e-08
-6.09010581358e-08
-1.89757714891e-07
-1.55610664754e-07
3.41538159004e-08
-2.88656209801e-08
6.58247433693e-08
0.000133191112006
-6.7251027178e-06
-1.83272406369e-05
-1.70129091776e-05
-1.32384142584e-05
0.0505959891066
-0.000147070921124
1.28707943877e-05
-2.42999897133e-06
1.02567529801e-05
-1.38288013289e-06
0.0504952327345
7.41603780007e-05
-0.0504817912155
-1.87360938671e-06
1.43374707109e-05
0.0117086985779
-5.79696257373e-06
1.07750951398e-05
-0.0117218893282
-1.34134543917e-06
1.59714177894e-05
-0.0116997469367
-3.98030373979e-05
3.82457584772e-05
0.0116909514489
1.43808706184e-05
0.0126193103294
-2.76336037756e-05
2.24755859689e-05
-0.0126160363619
-0.000330673648063
-7.39038497383e-05
-9.40670511831e-05
-7.55840658449e-05
-9.18547609312e-05
0.0503994624654
0.000326724549282
0.0502820627594
-3.15089150104e-05
-4.73954111479e-05
-3.5612865944e-05
-4.46143191261e-05
-0.000255428249453
-7.17517057818e-05
-8.79099766721e-05
-6.61425369114e-05
-8.66900856818e-05
0.0503538715843
-0.000306463108534
-6.00256912866e-05
5.28136667225e-05
-3.02374535257e-05
0.0125531517037
-8.13737103798e-06
9.38603756479e-05
-0.0113152150383
1.41597722788e-05
0.0112320815216
-5.02753257518e-06
-5.48436009341e-05
-2.64248125374e-05
0.0125434821402
-0.0125382204346
-7.91924800094e-05
0.0125412196179
7.49038189768e-05
-7.04224962604e-05
0.000697675991223
1.12566843014e-06
-4.26204497529e-06
-4.18871405309e-06
-2.91088158976e-05
8.10855754096e-05
3.01206346393e-07
8.8012591186e-07
-6.52640169342e-06
-5.44548316393e-06
-1.37087677084e-05
-1.78547562573e-05
0.000615092300668
0.000240664943477
-0.000672897958477
-2.71899558408e-07
2.04162884398e-07
-3.74001335354e-07
3.08750814469e-07
-4.91266355096e-07
1.41819948162e-07
6.15088456896e-08
6.52074896758e-07
8.46301437341e-07
-5.43999086307e-06
-4.10448575885e-06
-7.07336244473e-05
0.000120692318151
1.50560427637e-07
-8.36559761e-07
2.08541043962e-07
1.34486062086e-05
0.0126182385951
-1.75920569232e-05
-0.0126175985663
-0.0126154992247
2.11038039345e-06
-8.95579375613e-06
0.0126103629292
-1.99333379738e-06
3.3292955855e-05
5.38557132923e-06
0.0116783842321
-1.12325286363e-05
5.75941453829e-06
0.0116696510208
-0.0116785261681
4.84396040222e-05
-0.0126178261417
3.73080384094e-06
0.0116640262909
4.24332774127e-05
0.0126166379433
-1.51710187349e-05
0.0126034718663
3.52903177006e-06
-2.96949253852e-06
-9.12842106499e-06
-4.47446292737e-06
-0.0126130918661
0.0126089781246
-2.03866420394e-06
2.67878058352e-05
4.64292899957e-06
-7.3095386494e-06
-8.04824383698e-06
-0.0116519563372
0.0116436810318
2.95473657553e-05
0.0125981582869
-1.72213357418e-05
3.49838878221e-05
-9.09329534836e-06
-0.0125889981666
-3.98930528359e-07
2.15974299124e-05
0.0125821659385
-3.16864428662e-05
-1.25608213332e-05
0.0126002834229
7.6720044397e-06
1.46101563775e-05
1.40309239492e-05
0.0116108371731
-2.50285788092e-06
-1.69636725305e-06
0.0116283044699
2.58085671968e-05
-2.41860144597e-05
0.0116106593576
2.26054189031e-05
0.0125931412136
2.07474452717e-05
-3.17987597185e-05
-0.0125817454879
0.0125745230477
4.53966201456e-05
1.3415248405e-05
-0.011572427044
0.011526254136
3.24873701779e-07
-0.0115781950327
2.44357698164e-05
0.0115335578651
-6.64631953605e-06
3.1166361217e-05
-3.98232783183e-05
1.43776550857e-05
2.2873011145e-05
-1.04925681314e-06
2.46110766195e-05
3.30472321899e-05
-7.3205363758e-06
-0.0125516824992
0.0125447993136
-4.61199154015e-05
2.86453654645e-05
-0.0115726270971
0.0115377889161
-0.011565871193
0.0115424977797
3.18879557286e-05
-3.69716557391e-05
9.30819469266e-07
-0.0125742835011
-2.94981931058e-06
-2.47752141566e-05
-0.0115851943032
2.64714359181e-05
-0.0125626367646
-3.76145040038e-05
-0.0116032346212
-6.58358731604e-08
1.44606660301e-05
1.54830431731e-06
3.26268542847e-06
2.46294118773e-06
1.60691516749e-06
0.000794784533953
-0.0007858669733
1.9426120037e-05
-8.25248772409e-08
3.24132850207e-07
5.7631905597e-08
-2.22547715272e-07
0.0007198426007
-1.39626857777e-07
1.47377877072e-06
8.36928288372e-07
1.2220858568e-06
5.63136132933e-05
-2.73862618598e-05
-0.000685044824136
-6.52385464498e-08
1.04130600517e-06
1.7373035088e-06
1.63188555271e-06
0.00074961172434
2.37192070612e-05
1.77206240085e-07
-1.8669611729e-07
-1.89100012374e-07
8.54655737046e-08
-8.64170107647e-08
1.21508340227e-07
2.67628201865e-06
0.00050813024245
1.00937590704e-06
1.03114538636e-06
2.29127815732e-06
3.0118179393e-06
0.000286874645616
-6.37323992379e-07
3.39615544866e-07
1.10371741846e-06
-1.62172758623e-07
-1.39476490565e-08
3.82295243629e-06
-0.000296626614874
5.54372420597e-06
8.38803897535e-06
8.66739568142e-06
5.76710555325e-06
0.000353816528009
0.00033307011516
-1.15818234317e-06
2.80216782021e-07
2.01938196846e-06
3.06950446893e-06
5.97930182758e-06
8.03787915946e-06
5.51619260232e-06
0.000354496831218
-0.000251611534691
-9.41922990048e-07
-8.28669130654e-08
-5.46922377363e-05
-0.0126378494697
1.15058513457e-05
0.0126347701562
4.33563826287e-05
0.0126578490564
7.26069777341e-05
-7.77727997697e-05
-0.0126559008342
3.0863375834e-06
-1.88803888769e-05
0.0117053816469
2.15052246543e-05
-9.64408119513e-06
0.0117402729075
-0.011754057662
5.45948606545e-06
0.0126539108044
-6.02864271686e-05
-0.0126368984748
5.78948432322e-05
0.0117309230424
-3.35034503593e-06
-3.6801839866e-05
0.01263207577
1.86800986879e-06
3.06617638901e-05
-0.0126487843423
2.17711995689e-05
-2.13342806214e-05
0.0126457800147
8.47758860714e-06
-3.14176587227e-05
2.99541875228e-05
1.13195127219e-05
-0.0117251009061
-3.33005135968e-05
0.0117158429471
-4.06238523793e-05
2.09412874247e-05
0.0126309083946
-1.81949247586e-05
0.0117394364964
-2.89843374962e-06
2.51995699999e-05
-0.0117494634004
-1.30845213474e-06
9.9289432315e-06
0.0117247000936
2.27064182555e-05
-2.14587847046e-05
0.0126177202288
1.90880116306e-05
0.0126249508488
1.24170981903e-05
-0.0126245067078
-1.1177814851e-06
-0.0117368254243
0.0117256002575
0.0126218080233
-0.0117440588786
-4.15327205251e-05
0.012566229714
5.40207507557e-05
1.33705786042e-05
0.0114700975473
9.10087206974e-08
0.0114805883616
2.30930574592e-05
6.52943760109e-05
-5.67550653866e-05
0.012557525321
-7.17702213061e-05
6.17094063326e-05
1.54700059891e-05
0.0113913428031
-8.29759067349e-07
0.0125679414281
6.31020396958e-05
0.0114102800319
2.52883801437e-05
7.5430819044e-05
0.0125596782552
-6.9503602013e-05
-8.21036263941e-05
-0.012571582597
-8.66789021505e-05
0.0125823849814
7.58731193734e-05
7.27571595111e-05
1.31312787035e-05
-2.50251696077e-06
9.8866270259e-05
-0.0113392395797
2.47978884643e-05
0.0112536421195
6.87617429889e-05
-9.21767151015e-05
0.0125723467632
2.21191948583e-05
-0.0125342750297
-5.47914886246e-05
6.51336569044e-05
-6.19948460254e-05
-2.7505481973e-05
-5.29086676609e-05
2.99237458587e-05
0.0114932350343
0.0115046871876
3.40555608338e-05
-3.48461036794e-05
0.0114443197391
3.9375278175e-05
-5.46722342043e-05
0.0125465024943
0.0114282359701
0.0113764680543
-2.99776506222e-05
3.38482824598e-05
0.000111679756977
-3.33067636279e-05
0.0112948097552
3.80665943512e-05
8.41983870583e-05
0.0125583016113
-7.70946334697e-05
0.0125490760592
-7.58732193132e-05
0.000107649467935
-0.0113556501842
0.0112703259202
0.0125624519802
-0.000324509885557
-0.000256983941528
-0.000296047051878
0.00156019118528
0.202018298264
-0.000350755950754
-0.00126487667065
-0.000371448108933
-0.000114195860463
-9.79833924458e-05
-0.0001116353037
-9.67719742259e-05
0.000368445385656
0.0504985418339
8.91844530044e-06
0.000315164388586
3.89180375888e-06
1.0822768088e-05
1.06468273791e-05
1.31386744842e-05
-0.000269104278481
0.000174411955455
1.28208317661e-07
4.21436486613e-08
1.49957559809e-08
9.69417272945e-08
1.36469624293e-07
3.05215963487e-08
9.62597962219e-08
-2.19766909994e-05
-1.31770053752e-05
-1.1260555256e-05
-1.60517625798e-05
6.84808074229e-05
-2.88572407133e-05
0.0505005716911
-3.60327656443e-06
1.55158210279e-05
1.64080240688e-05
0.0117029351521
0.0504741948092
-0.000111722363101
-9.35679945214e-05
-9.22681854701e-05
-0.000113113963871
-0.000337934814115
0.0505722007003
-0.00010470497791
-0.000113219599784
-0.000109545548902
-0.00010784582012
0.000386669518213
-0.000345105280528
9.85884345612e-05
0.0111582337903
9.17260532227e-06
-5.22945588373e-06
-1.10655727726e-05
0.000122964976078
-2.78628867456e-05
0.0112172185541
3.37044028778e-05
0.010983217766
-1.73821596264e-05
0.000148171973813
-2.70380417495e-05
-0.0110547877713
3.95028078796e-05
0.0506260447665
-7.17825093315e-05
-9.17803733477e-05
-8.76900634024e-05
-7.46414886533e-05
0.000223975908889
0.000385500497586
-0.000337190087695
-5.13797014819e-05
-2.66312407741e-05
-3.10628508597e-05
-5.35194494413e-05
0.000124401898497
0.000400533781381
0.0506051001433
-0.000341286630996
-1.47152073593e-05
0.000129283075499
-3.0628614504e-05
0.0109201859962
4.24800844965e-05
-1.83495262141e-06
1.95909536527e-05
-3.16646185456e-05
-0.0108624548312
0.0108469609191
4.13152573484e-05
2.63351730372e-06
3.57516119117e-06
3.90947764999e-06
5.69137149705e-06
0.000774047820003
4.93429275998e-07
0.000125861731174
5.11487038435e-06
1.18307227634e-05
1.50968534424e-05
1.5050701953e-05
0.00035704866083
5.29018252886e-06
-0.000122953926041
1.67338540618e-05
1.62039122203e-05
1.56972587565e-05
-0.000314430965835
0.000359894123918
8.01750317986e-07
1.11555182879e-06
-1.10808154983e-06
3.90668299396e-07
2.73870503946e-06
-3.31514147335e-07
4.53284003012e-07
2.95669231824e-06
-0.000293854161794
1.40933010112e-05
1.27421939003e-05
1.22295577893e-05
-0.000332869526213
3.31269836677e-06
0.000370287671263
2.92955291398e-06
7.97196531577e-06
6.90276224347e-06
-0.00035776588481
8.2216746771e-08
-0.000328628098352
0.000367004342149
-0.0126220622338
-3.23123999848e-05
1.18889053366e-05
-4.3186640637e-06
0.0126251833406
-1.53878444282e-05
0.0126177674294
1.44296526828e-05
0.0117056750648
3.97010347011e-05
1.85595582088e-05
2.09738715049e-05
0.0116811443477
-1.22998424708e-05
4.43318519996e-05
0.0116799410144
0.0126195663782
0.000105535052741
-0.0125897972402
-0.000129954926759
-0.000108557752528
0.0126094367069
0.0125975733119
-9.81193778296e-05
8.39177386336e-05
0.000111879967942
9.8970215802e-06
-9.79850142423e-06
0.0110794729655
0.000108539563482
0.0111824512921
1.74764659318e-05
9.02187544772e-05
0.0126136740067
-0.000103127505945
1.69177228658e-05
0.0111088311354
-0.0125817172006
-0.000144334360079
-9.69250530349e-05
0.0126036929388
9.37559650972e-05
0.0125784708931
-8.38598554818e-05
0.000120094010041
0.0111970466056
-2.722922066e-05
0.000147743303968
0.0111305093527
3.65568040472e-05
0.0111183791017
0.0126016709683
-8.43609433414e-05
0.0126287311356
-0.000142162469595
-9.89477484245e-05
0.000112448215099
9.85258682485e-05
-0.0126299370171
0.0126510320354
-8.31599596295e-05
0.000141503579255
-0.0110467453718
0.0109716728632
-1.50950027315e-05
-2.82904381348e-05
0.000148542987448
3.88751634789e-05
0.0126473364752
0.000113044089314
-1.77090668728e-05
-8.49992879792e-05
-0.0126688921706
-9.05196725481e-05
-9.57029441361e-05
0.0126746022106
0.000109878421111
9.57284000464e-05
0.012673709857
-7.94894022601e-05
0.00012303283827
0.0109074523132
-1.97549616735e-05
-2.87667518117e-05
9.40841419193e-05
0.0108845854689
4.10773181199e-05
0.000110759226595
0.010865890517
-1.81735025445e-05
0.0126775476406
-7.8869414934e-05
0.0126680945753
-5.8874763744e-05
-9.17489490071e-05
0.000106632039387
8.86603592817e-05
-0.0126717767249
0.0126486697987
-7.20771882946e-05
2.25143744688e-05
-0.0108348102766
-1.97457681747e-05
0.0108197492556
-2.97516936103e-05
6.34745894521e-05
4.25310251548e-05
0.000103469363867
0.012645182256
-2.04158095485e-05
-7.50619523412e-05
-0.000479528705143
-0.0490189036528
0.0489915410692
0.000563690484852
-2.40575453194e-05
1.72206892435e-05
-1.1137083574e-05
-4.35788298054e-07
-3.84480363132e-05
-0.00061311296303
0.0495010688929
-7.05766894501e-05
-4.27616010157e-05
-7.0251244888e-05
-4.44549542617e-05
0.000136734755553
-0.049404694982
0.000608066302404
-0.00095979815769
-0.0496862117758
0.0499492756412
0.000843386932254
-7.95353541534e-05
-9.04074184103e-05
-7.37918721502e-05
-9.38116587063e-05
0.000190974182704
-0.000775252389442
-5.87544782597e-05
-7.73161648554e-05
-7.02313871217e-05
-7.09215697087e-05
0.000188206974489
0.0500567746647
0.000707034957264
-0.0498994681608
5.33485230968e-07
-0.000217784609532
-0.00100011377621
0.000886234873302
0.000231520637911
2.52613895811e-06
1.96047543293e-06
1.25679005713e-06
3.23378905211e-06
3.59389269631e-06
-0.000770954715198
0.000680454069508
0.000192996896534
1.85222785104e-06
1.42818367849e-06
1.25086285511e-06
2.85266779509e-06
-0.000172694969601
3.39089763195e-06
-0.000179150134072
0.000805679031766
4.85893414515e-06
6.10006164717e-06
2.78536260201e-06
5.96825397602e-06
-0.000872131392448
5.50206386352e-05
1.12444685227e-05
-0.000157169984889
-0.000728981389958
0.000682984371334
4.59222926084e-05
3.76559865279e-06
7.23962504452e-06
8.27665379458e-06
8.39698790864e-06
7.74413711991e-06
9.40285119723e-05
6.65911615612e-06
3.56852666018e-06
4.05349758759e-06
0.000665204264741
-0.000189809097177
3.01795979849e-06
-0.00070293765704
8.48416269792e-07
-1.43097253911e-07
2.19029503892e-07
-1.04373606855e-07
-7.45048031338e-09
-2.26789362358e-07
2.59730877659e-08
1.54166940657e-28
-5.13677912311e-07
-1.00937540488e-06
-7.2552132382e-07
-1.11400631293e-06
-5.43764301073e-07
1.66661259429e-07
-5.23111267591e-08
6.53560475666e-07
-2.61275424746e-08
-3.16223656297e-08
-1.18616916009e-07
-1.38147941644e-07
-2.20965156882e-07
-3.15399229616e-09
-1.44765354721e-07
-7.8233818553e-07
-3.19215992822e-07
-9.08304398237e-07
-6.82074546097e-07
2.5142923255e-07
5.44898000909e-07
-2.27401159684e-07
-4.32943196041e-07
-4.00714324691e-07
-6.41763569347e-09
3.3395264585e-08
-2.09990637376e-07
-1.15643225964e-06
-8.84174424286e-07
-9.68695645581e-07
-8.61503944331e-07
6.75725100992e-07
1.3917799218e-07
0.000158091418943
7.60883198198e-05
7.26959858391e-05
7.17537300871e-05
7.45148197535e-05
0.0487333606037
-0.000118587282751
-4.38376014743e-05
-0.04902403804
0.0487825942737
0.000284243461806
7.68110937436e-05
6.42619900957e-05
7.36695892471e-05
7.10230564666e-05
-0.000129230760763
-0.049065336191
6.40263464378e-05
-9.20205600317e-05
-0.011802374798
1.40785206358e-05
0.0118004409547
1.43115691759e-05
0.0117963247743
8.33043778802e-05
5.7882669857e-05
-6.70747388349e-05
-6.86074307502e-05
-0.0118011665938
4.9364818226e-05
5.53152047073e-05
7.02770637164e-05
2.49969665043e-05
-0.000269320689209
0.012183320568
0.0121467947308
0.0120685544079
0.0121381438385
-0.000164413130651
8.97743149053e-05
1.72495350949e-05
-4.08130343282e-05
-7.12003315346e-05
0.0118053195728
0.000371516860904
4.08150620868e-05
3.7038166092e-05
5.25776818415e-05
2.11700271642e-05
-9.40233247273e-05
-0.0491637903941
0.0492120551415
2.07997701965e-05
-9.96063628241e-06
-1.2368047919e-06
1.03824155114e-05
-4.99810392252e-05
-0.0492786366077
0.000468083628177
0.0118089052044
2.36987550906e-05
-3.56192593869e-05
-0.0118053319386
9.60149186356e-05
0.0118294656024
-4.91475195331e-07
2.72223654127e-05
-9.92291086325e-05
-0.011845220246
9.31239918924e-05
0.000833428842054
-1.72352141913e-05
-5.54995169803e-06
-5.14438296493e-06
-1.29359832191e-05
0.0490513029304
-0.000192889485765
-0.000156103829677
-0.000195923716025
-0.000160529692406
-4.66234745524e-05
-3.25802824316e-05
-3.82429544824e-05
-2.93500894824e-05
0.0492443468136
-4.20992169943e-05
-2.48176306806e-05
-1.65455146115e-05
-4.84671300881e-05
5.0339822304e-05
0.0494764845183
0.000762800619435
-4.45605366683e-05
-5.60951897434e-05
-4.77310848752e-05
-5.10919730422e-05
3.80098628623e-05
-1.0453680752e-05
0.0118129784105
0.000102362369942
0.0117049328868
-2.51441560845e-06
2.88756137734e-05
-0.0117332038471
0.000127320460822
-0.000124875017849
9.54285109639e-05
-2.85928596355e-06
5.03210933056e-05
-0.000102409461865
0.0118041294845
0.0116464863374
0.000103746075663
-6.82810997394e-06
8.74666935276e-05
-0.000113060272772
-0.0116930287302
0.0497475405846
-2.57181890229e-05
-5.65899431833e-05
-4.33121753503e-05
-4.23094103661e-05
-0.00105653100728
-6.40992336841e-06
0.00113180018714
-1.53941959003e-05
-1.09799332189e-05
-2.70567192024e-05
2.12929225397e-06
0.0502781108203
-0.000166268601289
-0.00144479805689
2.82535681418e-05
0.0116988722553
0.000147522564633
-0.000138458538041
-2.22081443524e-06
-1.20534389662e-05
-0.011698201504
0.00017917858997
0.0117273813315
-0.000179464182763
0.000110388997106
-7.78292479024e-06
8.55642326156e-05
-0.000115069878376
0.0116370657839
0.0001404925592
-2.98317875865e-06
2.56207546187e-05
-0.000154688148482
-0.0116071611799
0.01162264639
0.000729938236182
-8.23377020921e-05
-8.8707619494e-05
-7.62590708411e-05
-9.44450448195e-05
0.000189509065528
0.049824468412
-8.59437025518e-05
-9.37945394835e-05
-9.81604171421e-05
-8.56752719269e-05
0.000214439396607
-0.0496435438666
0.000698348867779
6.09790086337e-05
0.0118182498162
8.92895644452e-05
-0.01184637523
0.011641839849
-9.99489234194e-06
0.000121936656398
-0.0116986941908
9.97904305309e-05
0.0116900203499
-9.79197865172e-06
0.00012962364694
-9.91130361342e-05
-0.0117429654204
9.40021444438e-05
0.000950578161601
-6.87417654345e-05
-3.95566982057e-05
-5.96800837357e-05
-4.97095076341e-05
0.0502334439113
0.000114794021572
0.0500269472737
-8.03443673054e-05
-9.24685165979e-05
-9.41058375274e-05
-8.02846072015e-05
0.000213124507704
-7.15642379211e-05
-4.77531001997e-05
-6.66707413426e-05
-5.45609925008e-05
0.0502198064295
0.000813556596521
0.000184893213853
0.000120867153571
0.0116200038156
0.000115969242958
-3.20586313626e-06
3.28752863103e-05
-0.0115875000855
0.000128159482195
0.0116031891691
0.000102727063884
-1.08042565886e-05
0.000126305034528
-9.71246966551e-05
0.0116651859981
0.000104286315703
-3.8837901514e-06
4.60279324137e-05
-0.000112715625849
-0.0116463821363
0.0116424725191
0.000102779460935
0.0116953798646
9.77389925455e-05
-0.0117140640508
4.78843511288e-05
-0.0116892967401
0.0116755314604
-3.60052731544e-06
9.25806755403e-05
7.1578957714e-05
-6.78980794413e-05
-7.00792080707e-05
-7.44347785798e-05
0.00106408095363
6.253072355e-05
-0.000992874940897
-1.61300555739e-07
0.00107789168152
0.000204136460619
-6.71110220378e-05
-6.35117789435e-05
-7.22283401928e-05
-0.00102809617764
-3.49858229183e-07
1.16936186826e-06
-3.28109544594e-05
9.38347662507e-07
-4.57851864829e-06
-0.000141591144281
0.000964187749402
7.96782977438e-07
5.53420492357e-08
2.39890256528e-07
-2.81222412321e-08
-1.31178423246e-07
-3.16635510526e-08
4.2165794719e-06
-2.06309367356e-06
-1.43650098016e-07
2.83930024e-06
-5.33186905023e-09
-5.1340182834e-07
5.68257253634e-06
-8.92676110967e-08
-2.8217157584e-06
4.32071889963e-06
-4.37642145715e-08
-1.43427261548e-06
-1.31295327086e-07
1.64967296379e-08
2.197129143e-06
-1.40888909042e-07
-1.99523875298e-07
4.65960335717e-06
-1.51881269276e-07
-1.2227473234e-06
8.4631319199e-09
1.8674330569e-06
7.75291029315e-07
0.000242851457313
-5.75339196099e-05
-9.28861393935e-06
-4.62489238471e-05
-6.85936930067e-08
-0.000995733431402
0.000918102356611
-6.77569096036e-07
-1.56314283101e-05
-2.96534636094e-05
-0.000928636611795
1.86921909847e-06
0.000181984985738
0.0002169065608
3.34639958516e-06
2.12949616783e-06
3.59396972767e-06
5.05071122756e-06
-0.000203713777002
0.000834574426884
3.74423651764e-06
2.32039398806e-06
4.83375672641e-06
3.85654580206e-06
4.04088841309e-06
0.000740191923258
0.000176324140296
4.584133118e-06
5.64957514254e-06
6.00388900467e-06
3.55944846937e-06
1.25497543317e-07
-1.34601185043e-06
3.7253238073e-07
5.57070305522e-06
3.35062929655e-06
2.24482088375e-07
-1.49739122485e-06
5.59096779708e-06
5.67011270754e-07
0.000161653651488
-2.97617953726e-07
7.95859785903e-07
2.48925478074e-06
3.32379275305e-06
0.0006654447246
-0.000142238358247
0.000679408583101
2.50707350954e-06
1.7125106995e-06
4.54199255341e-06
2.31688427853e-06
1.41967535337e-06
9.50666931031e-05
1.81978048379e-06
7.87159205601e-07
3.30223400901e-06
0.000682091965649
4.65592314711e-06
5.5279885122e-07
7.44452913728e-07
2.3236270752e-06
5.13452041541e-06
8.38539583354e-07
1.13396610197e-06
3.3544719856e-06
4.82382004023e-05
5.48825099684e-06
7.91048676643e-06
1.15906313798e-05
1.0217783259e-05
5.65688316125e-06
0.000715106466418
1.1710455818e-05
8.52598403474e-06
1.03786883962e-05
-0.000785845799885
-0.000105122824858
2.72530604537e-06
-9.80075633806e-07
9.07436722904e-08
2.54533026392e-07
5.40566782881e-06
5.22108423145e-06
-2.51291201053e-06
-2.29198849412e-07
-1.8416380474e-05
2.32976069372e-06
1.88760615765e-06
4.57213965625e-06
8.28876023903e-06
0.000685424249091
0.00067793367185
4.04720904233e-06
8.63769616288e-06
7.83342989746e-06
8.8947091103e-06
2.63930164176e-06
4.87413385522e-06
2.94040313571e-06
8.53418554632e-06
0.000665133557925
-0.000131378391334
5.75436088988e-06
4.24110825698e-07
7.59157320352e-07
4.57120144171e-06
6.26559126682e-06
-3.23601041486e-07
6.22454683128e-06
-3.1967673405e-07
0.0122304478474
0.000103145737636
-2.68982429574e-05
3.28110292104e-05
-0.0122634629289
2.58405710382e-05
-0.0122316184012
0.012198046213
-1.16366126292e-05
1.04920555535e-05
-9.86395364686e-05
1.61278561176e-05
-0.0118009541279
-9.20176787805e-05
-0.0117995187042
4.09621459548e-05
0.0117930054991
3.88582925789e-05
0.012197076857
3.40714169984e-05
-0.011798763267
-1.70399200067e-05
-0.0122656454327
0.0122314252024
4.01754617738e-05
0.000103118298299
-0.0122652141877
-5.24510376695e-05
-0.0122398482092
0.012223402065
6.60288831833e-05
-8.61148964281e-05
-0.0117962965656
0.011786595374
-9.09042862404e-05
-5.97541329672e-05
8.17014277354e-05
-0.0117983353591
0.0122053207717
5.19402242696e-05
-0.0122716397814
-0.0117959624323
-0.0121929958507
9.00336003739e-05
2.97394602345e-05
-6.09198264019e-05
0.0121835780292
-6.18335218947e-05
0.0122177235918
8.20018138997e-05
-6.48815340125e-05
0.0117972717337
-4.37531517543e-05
-3.95967589892e-06
-8.30921793196e-05
0.000102223289596
0.0117881360627
-4.40944364721e-05
0.000112711530341
0.0122160721729
-5.31590709875e-05
0.0117955917978
-5.91695137226e-05
0.0122715334993
4.83130166379e-05
7.01054760745e-05
-0.0122900164507
-0.0122550098609
7.35477764094e-05
0.0122489056348
-6.93174297062e-05
9.283007219e-05
-0.0118062059287
-1.27671118552e-05
-0.0118138524711
0.000101554198985
0.0118175896664
-0.0122791880424
8.39723782736e-05
0.0122695304698
9.64109673924e-05
-0.0118181047815
0.0122909469338
8.10635529585e-05
2.48631752315e-05
-0.0123060030956
-9.46266677141e-05
-0.0123063870516
0.0123072283085
0.000111007088386
1.05281038693e-05
-0.0118310162695
0.0118253271652
-8.60431192997e-06
-9.33279721915e-05
-0.0118444876369
8.8392042772e-05
0.0122895125329
-0.0123218568832
9.82175796358e-05
-0.0118336188635
-0.000121805584
-0.0122709286397
-5.30181130747e-05
0.0122901922543
0.000131851362362
0.0122466970462
9.10929596995e-05
3.08415907559e-05
0.000107743879235
0.011779022044
1.37643324083e-05
0.0118038638712
0.000105125389296
0.0122572709911
0.00010320772913
0.0117570303403
0.000110960957467
-0.000148155353733
0.0123205048776
-5.79741621514e-05
0.00015879357052
-0.0122771207012
0.000189884141702
0.0122979559149
-0.00018738877447
2.98281004022e-05
0.000113247874838
-0.000114271077575
4.14662927411e-05
-0.0117296270185
0.000124268586573
0.0117048808942
-0.000143267526849
0.00019324829077
0.0123452623637
0.000116337839684
-0.012297895697
0.000134521467393
-7.05099887858e-05
0.0123239301257
-0.000113247589485
0.0123190572221
0.000127027985679
3.48203284152e-05
0.0117975473643
8.57220107357e-05
-0.000106172151721
0.0117507087297
9.79707974823e-05
0.0123482588999
0.000142739572873
0.0117447914538
0.0123562755087
0.000157692424223
-7.54316043875e-05
-0.000181107552085
-0.0123793913712
0.0124118891466
0.000179997946685
6.46356451552e-05
-0.0117121434378
0.0116771101835
8.44875910875e-05
-0.000112974965149
9.96382963019e-05
0.0123851639321
0.000160037361658
-0.000266600849168
-0.012367609402
-1.49106167121e-05
0.0123961042697
0.000265865251233
-1.2699169808e-05
0.0123271278305
0.000233999968541
-2.39125021334e-06
-0.00023296746851
2.00835734346e-06
0.000152069303533
0.0117024404489
-0.00015511196262
2.71522498594e-05
0.0116604776316
0.000135567132895
0.0123626847074
-2.49080584861e-05
-0.000275249212963
0.000231490929975
6.9560545696e-06
0.0116629483238
0.000150485100159
-0.000296989700319
-1.78173304013e-05
0.0124542078911
0.000298118939407
-4.10652874416e-05
-0.012426669331
0.000320632889059
0.0125036520811
-0.000331855457817
-7.8013400881e-05
-2.27174444252e-06
0.000161511536607
-0.000164721596776
-0.0116839542914
-1.66777703894e-06
0.000175568770612
0.011711621159
-0.000308627761004
-5.44415519392e-05
0.000163158658039
0.000321747233768
0.0125144569278
-6.29596524865e-05
-0.0124056404943
0.000240762380565
-2.75400751403e-05
0.0124328863343
-0.000207321976053
0.0124433796686
0.000204666884458
4.01649954194e-05
0.0116286034286
5.07955834211e-05
-0.000133294307332
0.0116347999254
0.000120501323091
0.012464336216
0.000228568625404
0.0116322705412
0.000272780361422
-2.98121935837e-05
0.0124733115441
-0.0124895410266
-0.000290865627966
0.000271828558083
0.0125232899343
-0.0116560953185
1.67172328799e-05
0.0116849693871
3.33435754023e-05
-0.0001545568405
0.000132224928473
0.00025414237484
0.0125233111803
-0.000146660690329
-0.0123521518522
-0.000108898278462
0.0123819746148
0.000155414794912
0.0123376856126
0.000133716766672
-0.0123261759508
0.000104616925212
9.15622707947e-05
0.0117612629099
6.22110601841e-05
0.0118242483473
-0.0118556520867
7.81282221343e-05
0.01236822017
-0.0123411613121
0.000140686217803
0.0117693302026
8.3135105944e-05
-0.000160345367474
0.0124181301863
-0.00012832531979
0.000170516698002
-0.0124005142856
0.000177525874115
0.0124366602164
0.000108366220901
9.25692275323e-05
0.000139271264512