/*--------------------------------*- C++ -*----------------------------------*\
| =========                 |                                                 |
| \\      /  F ield         | OpenFOAM: The Open Source CFD Toolbox           |
|  \\    /   O peration     | Version:  v1906                                 |
|   \\  /    A nd           | Web:      www.OpenFOAM.com                      |
|    \\/     M anipulation  |                                                 |
\*---------------------------------------------------------------------------*/
FoamFile
{
    version     2.0;
    format      ascii;
    class       surfaceScalarField;
    location    "14.3";
    object      alphaPhi0.water;
}
// * * * * * * * * * * * * * * * * * * * * * * * * * * * * * * * * * * * * * //

dimensions      [0 3 -1 0 0 0 0];
oriented        oriented;


internalField   nonuniform List<scalar> 
92311
(
0.203251564114
-0.000158095748075
-0.00108692586796
-0.202878116751
0.000868891797579
-0.000118242853712
0.203466813995
-0.000745897214173
0.000648744965692
0.203271646463
-0.000272559126131
-0.00115418201119
-0.202922456981
0.000920616493149
-0.000175008924307
0.203479952155
-0.000752126007154
0.000601364424835
0.203389630751
-0.000166514997157
-0.000113248046366
-0.00111611142101
-0.202854219859
0.000848570621617
-0.000135352297066
-0.000124632931219
-5.09204226066e-05
-2.60759947766e-05
-2.31372984057e-05
0.203571305547
-0.000749026071271
0.000552698443085
-5.96489617192e-05
0.0509820335896
-4.30540819244e-05
-4.46709693592e-05
-4.0381361173e-05
-4.37398843091e-05
-0.00039886361556
-0.0509020576372
0.000324426339567
-0.0510424488194
0.0510936409537
-1.49318840873e-05
-6.69618721733e-06
-1.02828888304e-05
-7.20666525037e-06
-0.000256589895834
0.000193764746614
1.25859773683e-05
-0.000972911822681
1.09010161303e-05
1.02573833016e-05
8.96978050732e-06
0.000152261248435
0.000800599071238
-5.6694635614e-07
6.48682277228e-05
-0.00141827701368
-0.000410033666903
-6.90658662117e-07
0.00134286916718
1.38070380903e-05
1.47312111258e-05
1.19192987966e-05
1.22225919003e-05
0.000489431069037
1.6891696586e-32
0
0
0
6.86914164084e-29
-8.43823111565e-30
0
0
-3.09014576498e-05
-2.35372577176e-05
-2.26637346937e-05
-3.52760885743e-05
-0.000329520717275
0.000268440130175
4.89595334627e-05
0.00990830873274
-3.09671021704e-05
5.07947716046e-05
-0.0099400036914
0.00983774615963
-4.31472877634e-06
7.40537545988e-06
-0.00985427872996
-3.84781912847e-05
6.40478966371e-05
0.000161619179134
-2.45526540136e-05
0.0511630471549
-1.46449740555e-05
-1.37641773305e-05
-5.54821867778e-06
-0.000198468929209
-1.86324283586e-05
0.0511228758672
-2.22169251179e-05
-1.702808189e-05
-2.15222180706e-05
-0.0510298682857
0.000125048240185
-5.31248347573e-06
-4.12139704147e-06
0.0098396632771
-3.84334071885e-05
6.47628045929e-05
2.01887564372e-05
0.0127467266106
-2.55100761836e-05
-3.45334034782e-05
-0.0127322678855
0.0127336696365
2.17509673342e-05
-3.30817199094e-05
-0.012721490808
-0.000290364096366
0.203307542804
-0.00181943678739
0.00157351775764
-0.202774446789
0.203536931149
-2.54680664991e-05
-0.000355460601083
0.000315544872814
-2.49013197918e-05
0.203648945649
-0.000230424368633
0.000146526008369
-0.000423669541936
0.203375962828
-0.00193418280699
0.00161979740033
-0.202926377634
0.20363800034
-6.51599511595e-05
-0.000476248374819
0.000359553585095
-2.41371491232e-05
0.203805866702
-0.000325010298954
0.000158787159736
-0.00017655049621
-0.000225553388352
-0.000201359210251
-0.00191583003605
0.20337982384
0.00167350416656
-0.202800469133
-0.000156597159097
-4.77441560069e-05
-0.000113919525999
1.19295262145e-05
-2.00136592543e-05
0.203820390871
-0.000406353063
0.000262494496825
0.0509568311412
-5.90456735823e-05
-5.12143384011e-05
-6.890225099e-05
-4.1651643301e-05
-0.00060812760632
-0.0508940209958
0.000589630600169
0.0512384415072
0.00014739976866
-2.39845324511e-05
-1.34023967819e-05
-2.4934451946e-05
-1.47195833838e-05
-0.000193445474323
-0.0005678184131
-6.58518167158e-07
-0.00140037129848
1.39702353185e-05
1.28129258554e-05
1.20975702774e-05
1.07492701494e-05
0.000542354545894
0
0
0
5.90555704596e-31
4.16227176443e-32
0
-3.78436282634e-30
0
0
0
0
0
3.9327176305e-30
0
2.34423416047e-30
0.000518377820265
-6.71191486791e-05
-9.12788997791e-05
-7.60858330133e-05
-8.07015109981e-05
0.051038527442
-0.000510245931354
-4.60704933483e-05
-5.83679701922e-05
-5.20950065093e-05
-6.33201722854e-05
0.0509737851984
0.000455481659427
-0.0508921415868
-8.12175498166e-06
5.88643407318e-05
0.00999902567857
-2.21320821774e-05
-1.40227562936e-07
-0.0100000109274
-1.90988579134e-05
0.000117927302218
-0.00995173052628
-9.64556081748e-05
8.71254617144e-05
0.0099178027078
-4.84197623312e-05
0.0126985989231
-0.000142069116901
0.000130093125095
-0.0126849824345
0.000114254568397
-2.59177046322e-05
-2.61230772573e-05
-2.46019133901e-05
-2.04975995336e-05
0.0512731211558
-0.000165729388685
0.0512008317137
-9.99119498189e-06
-3.46379704404e-06
-1.15726324906e-05
-4.49013441007e-06
0.000111003854172
-2.85481175517e-06
5.29825057413e-06
-4.91112508454e-06
-1.51488918798e-06
0.0512155704584
8.36155421221e-05
2.39659185694e-05
-3.08711341873e-05
-2.91759361654e-05
0.0127583622323
-1.06426644117e-05
1.92405903946e-05
-0.00975317576384
-3.24899175474e-05
0.00972933134116
6.75076474571e-05
2.58947677332e-05
-2.29386781006e-05
0.012744869793
-0.0127458467114
1.74979672689e-07
0.0127473095832
-2.63121802755e-05
2.2457327039e-05
-0.0011597247409
7.24762113919e-06
3.4805624539e-06
4.99658147978e-06
0.000281812817047
-2.21710764838e-05
-6.7155278428e-07
-9.8563953516e-07
9.62518164742e-06
9.43163261196e-06
1.07930519103e-05
1.04331994587e-05
-0.000694904741222
-0.000147233857316
0.00048083118192
-1.98641565075e-06
-2.07679660821e-06
2.05321062793e-06
2.39871871423e-06
1.89584635921e-06
-2.10191351583e-06
-2.05922244377e-06
-6.40452463249e-07
6.13178602265e-06
5.70190016888e-06
7.28082464183e-06
0.000408938717275
-0.000179087015079
-6.97860814162e-07
1.35341693199e-06
1.15658215584e-06
9.77478099787e-05
0.0127177159514
-0.000107540088174
-0.0127026257684
-0.0127040429995
-3.0156715883e-05
-8.37884254164e-05
0.0127043918676
6.85614001559e-05
-3.27566624215e-05
4.01758876896e-05
0.00987950171852
5.69443320746e-05
4.01393966605e-05
0.00992767026544
-0.00996404843223
-7.45937007593e-06
-0.0126920407234
8.46372461145e-05
0.00989942069771
-8.74014027201e-06
0.0127228835708
-9.2471520872e-05
0.0127064111728
-1.6621309823e-05
-6.59742756526e-05
5.00163534416e-05
5.16792839843e-05
-0.0127243812548
0.0127197087687
-6.25026860832e-05
-3.35852282134e-05
2.42394663355e-05
5.97791838543e-05
6.09154031111e-06
-0.00987939527003
0.0098643888122
-1.56961070484e-05
0.0127059835836
3.57678353662e-05
-1.22790928517e-05
-7.78747610598e-05
-0.0127125230596
-1.19788941803e-05
-2.89004708099e-05
0.0127183053167
1.94052422732e-05
3.75410130207e-05
0.0127221113128
-5.07293476841e-05
-3.84885376734e-05
4.06317747541e-07
0.00983808137598
6.68192924789e-05
2.45619393439e-06
0.00985960880135
-1.55528918702e-05
2.30723535179e-05
0.00984750935019
-1.23127586232e-05
0.0127263861067
-4.04135803084e-05
-2.15748005959e-05
-0.0127364914968
0.0127463991471
-2.89194695125e-05
-3.74209908221e-05
-0.00983121022235
0.00981406020594
7.45409450827e-05
-0.00982901423322
-4.26576092501e-06
0.00979822619813
-2.18276199083e-05
-2.59363622286e-05
1.89707906031e-05
-3.68575286152e-05
9.10346548395e-06
6.99986753779e-05
-6.49856215656e-06
-3.32257772082e-05
-3.20121271209e-05
-0.0127205595793
0.0127310576943
2.04002548199e-05
3.90616646307e-06
-0.00983089081619
0.00981345237115
-0.00983729003948
0.00981974877724
1.02041657273e-05
2.0493402185e-05
-3.6039248805e-05
-0.012705197408
4.03633664052e-05
-2.58854847416e-06
-0.00985818964798
9.59032546813e-06
-0.0127017795313
1.94969997453e-05
-0.00984753317269
-1.09988612302e-07
0.000445925615217
1.51001160585e-05
1.77165754783e-05
1.70535173378e-05
1.44246644627e-05
-0.000885952442022
0.000598404179918
-0.000175027633211
-8.89189131646e-07
-8.23766283095e-07
9.33714524382e-07
9.83898358837e-07
-0.000672757160746
1.00894112481e-06
1.16168530772e-05
6.38949639339e-06
9.52846715031e-06
0.000474240221745
-0.000408807376375
0.000564851229986
1.32106232206e-06
1.68007769206e-05
1.91037447207e-05
1.58832028002e-05
-0.000906820858495
0.000622403732186
-1.6404878777e-06
-1.06654667117e-06
1.67276340331e-06
8.07073547618e-07
-1.02515672567e-06
-1.6519013627e-06
-1.19423408793e-06
-0.000916446396824
7.14123111905e-06
5.86266577146e-06
4.20670153961e-06
5.90763641743e-06
-0.00028962991191
2.86179716225e-07
-1.25316175803e-06
1.07763397285e-07
-1.01702373684e-06
7.17168659276e-08
-1.21303199635e-06
0.000601252207931
1.28448675866e-06
-3.62711852749e-06
1.81070905128e-06
3.28169277658e-06
-0.00106500655571
-0.000389331738706
4.35365840264e-07
-3.18965333644e-07
-8.25002033222e-08
-4.17826769458e-07
1.02927335234e-05
4.96931476667e-06
5.64544376781e-06
-0.00132667811063
0.000521840758788
8.55740673847e-09
1.89921866462e-07
-0.000157290227692
-0.0126822506986
-7.37601079075e-05
0.0126928545242
0.000160388020194
0.0126872744297
0.000164978399783
-0.000157129907975
-0.0126885875941
9.06251267854e-05
-4.30587451756e-05
0.00997518908258
2.5679017587e-05
4.39386531623e-05
0.00999993394736
-0.0100026461759
-3.75924974777e-05
0.0126983997982
-0.000147501691869
-0.0126819476589
0.000165800024014
0.00998101414227
-5.59487961542e-05
-0.000146705043209
0.0127061757902
-8.54167516677e-05
0.000151093681236
-0.0127106492797
0.000134909552835
-0.000123842460168
0.0127263092071
9.95078697054e-05
-7.11214287912e-05
5.81978696889e-05
0.00010310492215
-0.00995846312724
-9.43298808096e-05
0.00992203018304
-0.000136023526706
0.000140705054168
0.0127230114705
-7.71885622509e-05
0.0099559234501
6.61331207981e-05
-3.9262732052e-05
-0.00998592733486
6.28917351666e-05
7.54965216461e-05
0.00991723510587
-4.4602923696e-05
-0.000133093364134
0.0127144376974
0.000121543573913
0.0127060143639
-5.69197348605e-05
-0.0126928649568
7.28602402814e-05
-0.00995983478852
0.00992527082099
0.0127229028497
-0.00998173670162
-2.21974491183e-05
0.012757785414
-3.36014819679e-05
-3.5499806672e-05
0.00979745440265
7.1640992511e-05
0.00977038346494
-4.76831546803e-06
-3.73869063782e-05
-1.64036050951e-05
0.0127636649115
2.40318162162e-05
2.12193428023e-05
-3.54790412387e-05
0.0097784605326
7.09342384915e-05
0.0127687905557
-4.18293909809e-05
0.00975190115829
-6.37539818238e-06
-4.52113017911e-05
0.0127648619796
-7.38881942991e-06
2.60546679004e-05
-0.0127749033261
4.2992010702e-05
0.0127764633415
-5.06773751045e-05
2.43607191532e-05
-3.33380949061e-05
6.71415511654e-05
2.55556174636e-06
-0.00973652308511
-5.62504394904e-06
0.0097254226738
-5.10794883188e-05
2.44554850525e-05
0.012765997745
-7.01813074434e-06
-0.0127412282152
-6.45839958398e-06
-2.62907698882e-05
2.51045368792e-05
-1.99313550011e-05
2.43329712773e-05
6.08157307327e-06
0.00979684107701
0.00980470975726
1.49247008424e-05
-6.97221811699e-06
0.00979607236804
1.70128353356e-05
-1.09250533595e-05
0.0127494548328
0.00978424694736
0.00978485418496
-7.65881935945e-06
1.91425441104e-05
-1.31436497108e-05
-7.9521008704e-06
0.00977781011732
1.96516381887e-05
-2.261941972e-05
0.0127455945385
1.72355715503e-05
0.0127496337644
-4.68098404372e-06
-6.8246669932e-07
-0.00977202177194
0.00976418008247
0.0127501971375
-0.000149909677422
-7.95249192701e-05
-0.000109009800489
-0.000279525897104
0.204369596892
-0.000162482613498
0.00020768500024
7.40595462333e-05
-2.69065146446e-05
-3.1326440168e-05
-3.13084627359e-05
-2.76694450366e-05
-0.000113083113394
0.0512794628614
6.89661771781e-06
-0.000524058014358
-2.75639418059e-07
4.91855891669e-06
3.306082101e-06
2.42381549534e-06
0.000314448487989
-0.00112051794479
0
0
0
-2.31837831213e-30
-2.29257528742e-29
0
-1.71332001288e-30
-6.09606612198e-05
-5.78498743672e-05
-6.32962040985e-05
-5.51456972859e-05
0.000203704871363
-0.000455500399479
0.0510642965877
-1.55189191764e-05
5.99365063939e-05
8.01801540051e-05
0.00988018600424
0.0512064005542
-1.79903729802e-05
-6.51640281557e-06
-1.28283171538e-05
-1.30506470386e-05
5.42977425246e-05
0.0512167857472
-2.69319054744e-05
-2.90385997317e-05
-3.26221498825e-05
-2.37479480402e-05
-2.74503291566e-05
2.06432984252e-05
1.99598541943e-05
0.00970079054987
-2.80975056433e-05
6.02642163486e-05
7.68847757799e-06
-8.60423662811e-06
-6.88848991942e-06
0.00976502189169
1.84907229355e-05
0.00968280355558
5.10034628213e-06
2.29168434085e-05
6.99496996518e-06
-0.00971680095996
3.01149737202e-06
0.0512391971648
-3.0818063715e-05
-2.79730536759e-05
-3.12643421974e-05
-2.96025993896e-05
8.93097780223e-05
2.23222626718e-05
-1.41483134846e-05
-2.42463543553e-05
-2.10146023408e-05
-1.87593795399e-05
-2.34146171424e-05
6.26888853967e-05
7.1575495977e-05
0.0512511960879
-5.85530804307e-05
-7.4121736616e-07
2.53293951428e-05
1.80924078009e-05
0.00965635910189
-1.01072351114e-05
5.32479503694e-08
2.25046506396e-05
7.02604315648e-05
-0.00961415892249
0.00960371233534
-7.19390624284e-05
1.73221988686e-05
1.37285788001e-05
1.56980269462e-05
0.000482671644746
-0.00122992911635
-1.58761545372e-07
-0.00105851349913
-9.62058874569e-07
3.3331695052e-07
-2.80387976029e-06
1.95265762022e-06
-0.000471615785813
-6.23853453984e-07
-0.000921341786089
1.37636219888e-06
-1.08950615953e-05
-2.69054824849e-06
0.000304062099029
-0.000389820211429
8.38220755371e-08
-8.20153132467e-08
9.04449671212e-07
8.4612448264e-07
-4.6955797651e-08
-8.77162115912e-08
1.35320789982e-06
1.24122791474e-07
-0.00064325087895
2.40482516195e-06
3.84926357675e-07
1.75855804689e-06
-6.57837524065e-05
-1.78441348164e-07
-0.000197352558081
-6.52963887259e-07
1.01922827121e-06
1.17818822274e-06
-0.000260748603798
-6.92877816854e-08
-0.000428454216776
5.36375196865e-05
-0.0127411417546
-5.8498154362e-05
0.00010957921045
-0.00011885619231
0.0127494050301
-0.000122102768223
0.0127311951463
7.325772321e-05
0.00988390512299
0.00010860854686
8.90139566316e-05
4.45616393378e-05
0.00985059773114
-0.000130095916873
0.000120771490679
0.00985138738074
0.012738575597
-3.33357212933e-05
-0.0127612180894
-5.1728166113e-06
1.74418822255e-05
0.0127556833445
0.0127746541694
3.94290281726e-05
-4.8183739368e-05
1.33027825397e-05
-3.13177384012e-05
6.12395554585e-05
0.00967776464884
5.70130536867e-06
0.00970865301245
-3.56794211229e-06
-4.26690587122e-05
0.0127667527291
2.26872439342e-05
-6.1825464693e-06
0.00968928168845
-0.0127440121587
-1.10332080424e-05
1.63493097843e-05
0.0127383353247
-2.04720078066e-05
0.0127366629491
1.43384503248e-05
4.05486076538e-06
0.0097538969373
-6.40958883016e-06
3.13079108647e-06
0.00974627074131
1.93355600885e-05
0.00973727488046
0.012731641806
1.11758830904e-05
0.0127265860612
-1.67593352002e-05
1.09834985607e-05
-9.52508590672e-06
-6.42362393466e-06
-0.0127203324191
0.0127144862542
4.41592243339e-06
2.9481705094e-05
-0.00971156680873
0.00967859013853
1.89726125917e-05
-1.62420064627e-06
9.92909950441e-06
1.15024223721e-05
0.0127208012494
-4.59619442477e-06
1.12528270302e-05
7.65810433257e-06
-0.0127172346217
-3.07116992581e-05
1.10523508969e-06
0.0127153241035
-2.03036491512e-06
-3.35071880258e-06
0.0127102227578
2.35758706673e-06
3.1302670274e-05
0.00964634140292
2.81428781359e-05
3.34624347733e-05
3.01180506372e-05
0.00963207600895
-3.04173106546e-05
-1.8255239796e-06
0.00961841989127
3.9648943627e-05
0.0127122444405
-1.48485824267e-06
0.0127199795279
-2.52799899104e-05
9.7801248393e-07
-4.40847218135e-06
-1.4895151506e-06
-0.0127189169168
0.0127269430924
-3.53402441857e-06
1.82252027436e-05
-0.00960046762276
6.92250736603e-05
0.00959325567651
5.2486297327e-05
2.67651871858e-05
-5.10389080562e-05
-8.76276347096e-06
0.0127276672728
5.51402044196e-05
-1.35842973244e-06
-0.000487573703325
-0.0490431083248
0.0490494936728
0.000688324359125
-0.00012226050855
-9.44431388733e-05
-0.000119690410885
-9.43927529791e-05
0.000223821550125
-0.000720364344379
0.0496404749681
-0.000104363182628
-8.8315371837e-05
-0.000110018635596
-9.03724349047e-05
0.000334787990102
-0.0495032154346
0.000641426080942
-0.00111401031151
-0.0499247582763
0.0502772558381
0.000953483254117
-0.000146290876496
-0.000136100925488
-0.000156424339533
-0.000138595995526
0.000385888392464
-0.000817300208671
-0.000137596235056
-0.000131876815219
-0.000135365787142
-0.000136937073902
0.000351216735227
0.0504592386679
0.000730818042817
-0.0501816147649
4.45878470632e-06
-0.000255598624543
-1.05587648626e-05
2.5035427725e-05
0.000148135594635
3.45525980711e-06
7.65482657966e-06
4.68644675689e-06
8.04273166879e-06
2.76073903548e-05
1.1114813668e-05
-0.00013153893287
0.000252365164775
4.00847606981e-06
3.53708392812e-05
2.47090945343e-05
2.91903080339e-05
-0.000269388172589
3.85414305153e-06
-0.000104774834795
-0.000725333226281
5.65004173126e-07
5.88699124499e-06
4.09938680403e-06
5.9449069491e-06
0.000729448901612
5.357160389e-05
1.61107797842e-05
-0.000254972669214
0.000728673040272
-0.000753703055671
0.000184914114097
1.29107746234e-06
1.91690670256e-05
1.55137754255e-05
1.81597243927e-05
1.50773147019e-05
-5.58528640143e-05
1.67410552395e-05
1.56735648627e-05
1.67475601364e-05
-0.00115202853246
-8.48021572255e-05
2.5023322394e-06
0.00115615896549
3.93582365562e-08
-3.30219148648e-09
-5.12023025653e-08
-6.57441740345e-07
-5.01370515907e-08
-6.41631591115e-07
-1.03235375965e-25
2.16874129397e-08
-5.42357341181e-07
-7.31493437587e-07
-4.66785386225e-07
-6.66967557006e-07
-6.15567927844e-07
3.41045053214e-07
1.33877938607e-06
2.28413008309e-07
-9.69130716805e-11
-1.89880989939e-07
-4.39931882769e-07
-8.20575045594e-08
-1.40363672314e-07
-1.55585228494e-10
-6.16854617973e-08
3.99517827266e-09
2.48881243827e-08
3.66820196426e-07
3.78111377715e-08
9.47132580487e-07
1.28022619802e-09
5.96896994953e-10
-1.28921836259e-08
-1.81860554512e-08
1.18133007022e-49
-5.38407206526e-11
1.98835964838e-09
-1.09891550795e-07
-4.29612160709e-07
-1.09178052853e-07
-2.51645479937e-07
2.69146619438e-07
-1.16222340212e-08
9.81191080267e-05
-3.96686560152e-05
-4.68931551464e-05
-5.23558143756e-05
-3.17157054113e-05
0.0488633910486
0.000207018250276
9.43291456738e-05
-0.0490922108387
0.0488824554018
0.000330522167327
-4.62965583204e-05
-6.57278564085e-05
-5.65378919092e-05
-5.6788088468e-05
0.000205722657826
-0.0490951574209
2.01636206298e-05
4.39041264626e-05
-0.0107844160603
9.07362454367e-05
0.0107176074141
-9.0756434669e-05
0.0107305008489
8.01181850673e-05
-1.37086852806e-06
8.55896027479e-05
-8.68673177611e-05
-0.0107927517399
-7.91214135627e-05
-8.54813018719e-05
-6.9606266996e-05
-9.11123150336e-05
-0.000192579488961
0.0122198466589
0.0121542833302
0.0121847546562
0.0121945011167
0.000159396722861
9.32987188288e-05
-2.3417372702e-06
0.000108463115829
-0.000100893992085
0.0106498453817
0.000512108828856
-5.21134866677e-05
-7.50150151963e-05
-5.30905484339e-05
-7.55837301489e-05
0.000200095964674
-0.0491689585911
0.0492849891697
-4.55802882032e-05
-6.91490390708e-05
-6.71417615934e-05
-4.52658209875e-05
0.000179575517169
-0.0493053768313
0.000579900052549
0.0106879306164
-2.64490894093e-06
9.48607858354e-05
-0.0107538439341
7.51786561e-05
0.010606310838
-1.38410291584e-06
7.01211568748e-05
-6.89630150262e-05
-0.0106682789882
7.13455851568e-05
0.000967093331292
-0.000119540088634
-0.000157395580662
-0.000118183281227
-0.000156461157016
0.0491632940537
-0.000183828582758
-0.000151316632359
-0.00020471250444
-0.000172593103053
3.73665990828e-05
4.43107669211e-05
5.45092614896e-05
4.72807381597e-05
0.049322916857
-0.000112373989831
-8.50755269457e-05
-8.45919718687e-05
-0.000110559219752
0.000322615646008
0.0496285034274
0.0009311274632
-0.000114308257663
-0.000142893295559
-0.000150062635503
-0.000112987098425
0.000250953730815
0.0001174019334
0.0106095494228
8.51631953519e-05
0.0102520009952
-1.94619653903e-05
0.000235084678261
-0.010390763196
0.000147326433237
-0.000165945526045
7.5516823685e-05
-4.0337681278e-06
8.65806058215e-05
-7.50829620117e-05
0.0105396828726
0.0102310022368
9.35687925874e-05
-1.27902068004e-05
0.000177454176328
-0.000107490453139
-0.0103484307046
0.0500388898136
-0.000173113624214
-0.000140873937146
-0.000143800295024
-0.000159806863494
-0.00121031474072
0.000304024671746
0.00129824292856
-0.000147939742329
-0.000123559309537
-0.000139369370905
-0.0001332420819
0.0507303546373
0.000171891521723
-0.00161703898925
0.000234553466974
0.0101316013226
0.000157829349525
-0.000175927732132
-2.76166524592e-05
0.000152807005539
-0.00988671386188
0.000209185836353
0.00983136329456
-0.000238339234625
9.21575390645e-05
-1.7014158733e-05
0.000174224722752
-0.000111413829337
0.010130112843
0.000100342108548
-2.04284757742e-05
0.000163868832508
-0.000135890856029
-0.00992597323513
0.00985862712151
0.000804908706236
-0.000119123709497
-0.000138712878657
-0.000114475680629
-0.000130906375073
0.000345491588695
0.0500886065514
-0.000117338047963
-0.000126309462681
-0.000126053453304
-0.00012044096113
0.000358476172193
-0.049834329459
0.000682674769141
8.4166617628e-05
0.0105233198734
7.62804457242e-05
-0.0105907221342
0.0102330177886
-1.149036673e-05
0.000158739640747
-0.0103416704581
8.79792734822e-05
0.010221380511
-1.15410992112e-05
0.000143595643196
-9.18865853059e-05
-0.0103196996614
9.95517758933e-05
0.00105128832584
-0.000141149375657
-0.00014411172386
-0.000147946222554
-0.000135204275638
0.0506908490047
0.000402214514392
0.0503833810366
-0.000140043989342
-0.000135563906826
-0.000132574470005
-0.000139403008262
0.000389447994975
-0.000136201469644
-0.000131221399023
-0.000135839506307
-0.000134770817683
0.0506918950994
0.000880136190706
0.000401134401799
0.000158311632858
0.0101357343325
8.59360658144e-05
-2.34179068212e-05
0.000163498757415
-0.00993225716076
8.59919185732e-05
0.00985733233044
9.95781754674e-05
-1.54956247188e-05
0.000148030266775
-9.22037646145e-05
0.0101293700404
9.23645014263e-05
-2.14264026064e-05
0.000140088678472
-8.59534374226e-05
-0.00995996131782
0.00989557863144
0.000150858838058
0.0101169995774
0.000103836017651
-0.0102063889613
0.000132695774024
-0.00995806891712
0.00990001870919
-2.01912922108e-05
9.95313886149e-05
0.000294741038454
-2.73863108858e-05
-1.4510454495e-05
-1.96472892221e-05
0.000303242922503
-0.000277150473096
-0.000231473490919
-1.28862946882e-07
0.000235737906927
0.000203807202247
-9.15217703509e-06
-2.95691880293e-06
-1.66868890462e-05
-0.000163183531157
1.12915553319e-06
2.73381016396e-06
-2.63724188896e-06
5.88737334091e-06
2.40237412192e-06
-0.00032496051594
0.000247657592855
-1.51731215203e-06
1.63594279438e-07
1.49429125836e-09
-1.52109407687e-06
2.91708197077e-07
1.30652220981e-06
-3.4109023718e-06
-3.13396989844e-06
-6.41826560531e-06
-7.82626406179e-07
2.06128307195e-09
2.77637933829e-07
-4.24162605503e-06
-1.12249422083e-07
-5.16470295286e-06
-6.68587641185e-06
-1.11696571686e-06
-4.37268490118e-06
8.79197875592e-08
-1.88322378477e-07
-5.76616416222e-06
-3.82835968015e-06
1.89172641671e-06
-8.68392314721e-06
-1.53627330292e-06
-5.40941415888e-06
1.69290276944e-06
-7.64351000703e-06
-4.82755377203e-06
9.66484095375e-05
-1.63770268096e-06
2.08098806865e-06
-8.96580643761e-06
2.48351367282e-06
3.26644691346e-05
-0.000331869758286
2.60554882798e-06
-5.13460890459e-06
1.53391372065e-07
0.000358354384957
5.94127523406e-07
4.30755974354e-05
0.000192934620868
3.49673917543e-06
1.35077686681e-05
1.8433598997e-05
1.34742978953e-05
-0.000264344980072
-0.000341254346422
1.23146539658e-06
4.2315473695e-06
6.52506610267e-06
7.38989638514e-06
1.22775899882e-06
-0.000387574521207
0.000174883556973
1.46878435464e-05
1.01561180113e-05
1.10977194323e-05
-1.15958279223e-06
-2.45246222765e-07
5.63129552709e-07
-4.84170483099e-07
-2.79465682216e-06
-1.06521141309e-06
-1.16153498731e-07
4.98714658159e-07
-2.20427221991e-06
-8.52221508282e-08
0.000284889295127
2.91540860874e-06
3.17325985784e-05
2.4210756617e-05
2.73237451056e-05
-0.000287618117555
-0.000237437434852
-0.000472664148897
1.46888302232e-06
1.95775651949e-05
1.95932214455e-05
2.36843992185e-05
1.42949587997e-06
0.000312305278132
2.39835563258e-05
2.08257223969e-05
2.44731725893e-05
-0.000579871214072
-6.44887597526e-06
-2.8529085892e-07
4.21996837542e-06
-1.01012469535e-05
-4.44889623554e-06
3.57696213417e-07
3.91342220539e-06
-9.64592696849e-06
0.000107102167232
1.0121207731e-06
9.13667818652e-06
1.11870736456e-05
9.13679330521e-06
1.62517307552e-06
-0.000976913890672
1.06976184896e-05
9.69194461867e-06
8.90947743185e-06
0.000988875449331
-5.31953272832e-07
-2.05131436599e-07
1.72002897637e-07
-8.45275809052e-08
-9.09682711387e-08
-3.10945644024e-07
-1.4804160964e-07
1.69217075969e-07
-1.63837676317e-07
0.000246100934495
2.0971486089e-06
2.240322905e-05
2.25523429982e-05
2.1414032776e-05
-0.000789033087373
-0.000973456797081
2.19184332773e-06
1.48525032481e-05
1.74380711487e-05
1.71515456317e-05
2.93112893816e-06
2.24587333722e-05
2.0514778052e-05
2.08205853483e-05
-0.000974601608722
0.000116540234393
-7.74379352948e-07
1.45968692071e-08
5.49239070171e-07
-3.15474813416e-06
-1.88806774901e-07
-2.30854526365e-07
-3.91473243942e-07
-3.85671315762e-07
0.0122571821709
-2.59817941331e-05
7.44951770799e-06
1.31604653848e-05
-0.012292042753
-6.1952552958e-06
-0.0122592781452
0.0122318786867
2.87162526418e-05
7.97833846471e-05
1.54852795215e-05
-7.82272275913e-05
-0.0108318196574
5.21313266282e-05
-0.0107981707393
9.03749773931e-05
0.0107324543618
1.98215960404e-05
0.0122292850367
8.24760213796e-05
-0.0108454047847
2.3657699796e-05
-0.0122923953065
0.0122610259833
3.71377812464e-05
-3.73790812581e-05
-0.0122943763574
-4.9036523161e-05
-0.0122653170069
0.0122480970607
8.47426344622e-05
6.20519497504e-05
-0.0107999231376
0.0107349203168
5.77465448077e-05
-8.0063307465e-05
7.32628572425e-05
-0.0108323725234
0.0122358070517
7.02707511179e-05
-0.0122982076056
-0.0108456227364
-0.0122101903688
7.6174366241e-05
-0.000115421173916
-3.02557722037e-05
0.0121991685475
-5.45744010081e-05
0.0122245588495
9.90962781978e-05
7.78504278749e-05
0.0106560523797
-9.98441702778e-05
0.000141781041956
-0.000112460596482
0.000112125635453
0.0105415529149
-2.32300001951e-05
0.000128631905124
0.0122219206793
-0.000110230613353
0.0105530511173
-9.89104015202e-05
0.012288064245
-4.39928387023e-05
0.000115889693682
-0.0123151615232
-0.0122732132428
0.000114959946012
0.0122606324568
5.23407184334e-05
7.10312742093e-05
-0.0107965150595
9.05457976614e-05
-0.0107273269545
6.53883580657e-05
0.010666614843
-0.0123041105488
0.000136490561861
0.012278894159
6.35293841671e-05
-0.0107652279439
0.0123080494956
0.000128980224706
-3.89783656188e-05
-0.0123297093805
-0.000149500537332
-0.0123301738522
0.0123289005218
0.000148820602221
7.85649381692e-05
-0.0106933738557
0.0106246987938
2.95074289275e-05
-6.72745445581e-05
-0.0107012055929
6.96209864072e-05
0.01230359133
-0.0123491927388
0.000130321474766
-0.0107281147561
-0.00016189260154
-0.0122701553619
-0.000164554672601
0.0122840976385
0.00018948496697
0.0122430880889
0.000137511505001
0.00016523885564
0.000100378766228
0.0104959879883
0.000114353443635
0.0105884026166
7.57447947593e-05
0.0122550639231
0.000163803103452
0.0104762016923
8.61979013193e-05
-0.000197843408235
0.0123114130207
-0.000172514725857
0.000224797195552
-0.0122755333005
0.000232305049896
0.0123211191187
-0.000197206130119
0.000178332612947
0.000115626223108
-0.00013102273855
0.000225821561006
-0.0103701919898
0.000127956681582
0.0102302703479
-0.000156539104692
0.000257771769426
0.0123579278861
0.00010057126312
-0.0122997729479
0.000200958663864
-0.000142514262238
0.0123176856544
-0.00017614938288
0.0123293835859
0.000174374384078
9.57159762341e-05
0.0105532528676
0.000130081297146
-8.17769458547e-05
0.0104401503261
8.02534671372e-05
0.0123495043115
0.000199558983631
0.0104512094417
0.0123467877984
0.000233791568421
-0.000151152493331
-0.000262186342644
-0.012378241203
0.0124222204211
0.000255004520288
0.000197920850743
-0.0103555028878
0.0102312456731
0.00013579595182
-8.99267297698e-05
8.34969955023e-05
0.0123926848698
0.000229058116864
-0.000294275105366
-0.0124152980381
-0.000243549674018
0.0124865546872
0.000313047153715
0.00015788371655
0.012382466053
0.000259951342721
0.000137570789468
-0.000220298435594
0.000265282788449
0.000193781752131
0.00999783404332
-0.000217799499983
0.000214593685233
0.0101135594865
0.000138543250554
0.0124627532946
0.000164417716293
-0.000268802859459
0.000284798474773
0.000135912200596
0.00998836384707
0.000163253443694
-0.000312767132155
-0.000212659155762
0.012586854938
0.000330276415685
9.98587283897e-05
-0.0125714939488
0.000328302570784
0.0126646124556
-0.000331196825462
6.64319885751e-05
0.000226903934821
0.000201028492847
-0.000227053805824
-0.00988188540306
0.000152265533705
0.000174863325114
0.00982799869652
-0.000294201327282
0.00010459894073
0.000172221857209
0.000338097232913
0.0126644881417
6.91108770578e-05
-0.0124456872331
0.000306673840351
-0.000226304340405
0.0125092552297
-0.000287727097
0.0124693131253
0.000276905535302
0.000196540977473
0.0101247251122
0.000198647808874
-0.000127727518142
0.010020950344
9.91645534031e-05
0.0125250201182
0.00029326624537
0.0100064680355
0.000319154533766
-0.000214421194444
0.0125914416595
-0.0125936863324
-0.000321546217764
0.000310275126542
0.0126493506347
-0.00990375699289
0.000177347642442
0.00983416088395
0.000191270534358
-0.000133365389394
9.98475549489e-05
0.000306467154526
0.012656452487
-0.00018636138677
-0.0123851213452
-0.000113195829554
0.0124113993285
0.000168543837993
0.0123579791803
0.000162668851301
-0.0123530090202
0.000120921989929
7.97499064018e-05
0.0104295583344
8.3909623306e-05
0.0105171265145
-0.0105866932437
8.07069327712e-05
0.0123816964933
-0.0123776555238
0.000146270447118
0.0104269731292
8.39322124649e-05
-0.000212832602637
0.0124373813984
-0.000122515854696
0.000191850326477
-0.0124105573353
0.000236266587761
0.0124518252021
0.000125573785789
8.18456303639e-05
0.000146503207701
-0.0103376401515
8.7882470425e-05
0.0102373622471
0.000214521445042
0.0124772679544
8.56773880124e-05
0.0124621098141
0.000172215970714
-0.000121422926948
-0.0124363388599