/*--------------------------------*- C++ -*----------------------------------*\
| =========                 |                                                 |
| \\      /  F ield         | OpenFOAM: The Open Source CFD Toolbox           |
|  \\    /   O peration     | Version:  v1906                                 |
|   \\  /    A nd           | Web:      www.OpenFOAM.com                      |
|    \\/     M anipulation  |                                                 |
\*---------------------------------------------------------------------------*/
FoamFile
{
    version     2.0;
    format      ascii;
    class       volVectorField;
    location    "12.4";
    object      force.turbine;
}
// * * * * * * * * * * * * * * * * * * * * * * * * * * * * * * * * * * * * * //

dimensions      [1 -2 -2 0 0 0 0];


internalField   nonuniform List<vector> 
28582
(
(0 0 0)
(0 0 0)
(0 0 0)
(0 0 0)
(0 0 0)
(0 0 0)
(0 0 0)
(0 0 0)
(0 0 0)
(0 0 0)
(0 0 0)
(0 0 0)
(0 0 0)
(0 0 0)
(0 0 0)
(0 0 0)
(0 0 0)
(0 0 0)
(0 0 0)
(0 0 0)
(0 0 0)
(0 0 0)
(0 0 0)
(0 0 0)
(0 0 0)
(0 0 0)
(0 0 0)
(0 0 0)
(0 0 0)
(0 0 0)
(0 0 0)
(0 0 0)
(0 0 0)
(0 0 0)
(0 0 0)
(0 0 0)
(0 0 0)
(0 0 0)
(0 0 0)
(0 0 0)
(0 0 0)
(0 0 0)
(0 0 0)
(0 0 0)
(0 0 0)
(0 0 0)
(0 0 0)
(0 0 0)
(0 0 0)
(0 0 0)
(0 0 0)
(0 0 0)
(0 0 0)
(0 0 0)
(0 0 0)
(0 0 0)
(0 0 0)
(0 0 0)
(0 0 0)
(0 0 0)
(0 0 0)
(0 0 0)
(0 0 0)
(0 0 0)
(0 0 0)
(0 0 0)
(0 0 0)
(0 0 0)
(0 0 0)
(0 0 0)
(0 0 0)
(0 0 0)
(0 0 0)
(0 0 0)
(0 0 0)
(0 0 0)
(0 0 0)
(0 0 0)
(0 0 0)
(0 0 0)
(0 0 0)
(0 0 0)
(0 0 0)
(0 0 0)
(0 0 0)
(0 0 0)
(0 0 0)
(0 0 0)
(0 0 0)
(0 0 0)
(0 0 0)
(0 0 0)
(0 0 0)
(0 0 0)
(0 0 0)
(0 0 0)
(0 0 0)
(0 0 0)
(0 0 0)
(0 0 0)
(0 0 0)
(0 0 0)
(0 0 0)
(0 0 0)
(0 0 0)
(0 0 0)
(0 0 0)
(0 0 0)
(0 0 0)
(0 0 0)
(0 0 0)
(0 0 0)
(0 0 0)
(0 0 0)
(0 0 0)
(0 0 0)
(0 0 0)
(0 0 0)
(0 0 0)
(0 0 0)
(0 0 0)
(0 0 0)
(0 0 0)
(0 0 0)
(0 0 0)
(0 0 0)
(0 0 0)
(0 0 0)
(0 0 0)
(0 0 0)
(0 0 0)
(0 0 0)
(0 0 0)
(0 0 0)
(0 0 0)
(0 0 0)
(0 0 0)
(0 0 0)
(0 0 0)
(0 0 0)
(0 0 0)
(0 0 0)
(0 0 0)
(0 0 0)
(0 0 0)
(0 0 0)
(0 0 0)
(0 0 0)
(0 0 0)
(0 0 0)
(0 0 0)
(0 0 0)
(0 0 0)
(0 0 0)
(0 0 0)
(0 0 0)
(0 0 0)
(0 0 0)
(0 0 0)
(0 0 0)
(0 0 0)
(0 0 0)
(0 0 0)
(0 0 0)
(0 0 0)
(0 0 0)
(0 0 0)
(0 0 0)
(0 0 0)
(0 0 0)
(0 0 0)
(0 0 0)
(0 0 0)
(0 0 0)
(0 0 0)
(0 0 0)
(0 0 0)
(0 0 0)
(0 0 0)
(0 0 0)
(0 0 0)
(0 0 0)
(0 0 0)
(0 0 0)
(0 0 0)
(0 0 0)
(0 0 0)
(0 0 0)
(0 0 0)
(0 0 0)
(0 0 0)
(0 0 0)
(0 0 0)
(0 0 0)
(0 0 0)
(0 0 0)
(0 0 0)
(0 0 0)
(0 0 0)
(0 0 0)
(0 0 0)
(0 0 0)
(0 0 0)
(0 0 0)
(0 0 0)
(0 0 0)
(0 0 0)
(0 0 0)
(0 0 0)
(0 0 0)
(0 0 0)
(0 0 0)
(0 0 0)
(0 0 0)
(0 0 0)
(0 0 0)
(0 0 0)
(-0.00346253256832 8.22078653561e-05 0)
(0 0 0)
(0 0 0)
(0 0 0)
(0 0 0)
(-2.39480920625e-05 4.61141192045e-07 0)
(0 0 0)
(-2.39454328504e-06 5.20817353822e-08 0)
(0 0 0)
(0 0 0)
(0 0 0)
(0 0 0)
(0 0 0)
(0 0 0)
(0 0 0)
(0 0 0)
(0 0 0)
(0 0 0)
(0 0 0)
(0 0 0)
(-0.0160211007282 0.000520984017779 0)
(0 0 0)
(0 0 0)
(0 0 0)
(-0.0279152313593 0.000733124205035 0)
(0 0 0)
(0 0 0)
(-0.0284544211242 0.000899506670532 0)
(-0.127524315907 0.00403132336843 0)
(-0.0759241967972 0.00199396041908 0)
(-0.732007728378 0.019149850207 0)
(-0.00559840313194 9.44309331334e-05 0)
(-0.0754690738881 0.00198200774648 0)
(0 0 0)
(0 0 0)
(0 0 0)
(0 0 0)
(0 0 0)
(-0.0160211054058 0.000520984169888 0)
(0 0 0)
(0 0 0)
(0 0 0)
(-0.0277297946486 0.000728254170487 0)
(0 0 0)
(0 0 0)
(0 0 0)
(0 0 0)
(0 0 0)
(0 0 0)
(0 0 0)
(0 0 0)
(-1.44934878263e-05 2.64251123413e-07 0)
(0 0 0)
(-8.74299005517e-06 1.59405725644e-07 0)
(-0.000123050301948 2.67128268325e-06 0)
(-0.000554325180538 1.20337718171e-05 0)
(-7.38225116195e-05 1.60260311273e-06 0)
(-0.000332868722868 7.22620295213e-06 0)
(0 0 0)
(0 0 0)
(-0.000370973095831 6.47863626872e-06 0)
(0 0 0)
(0 0 0)
(0 0 0)
(0 0 0)
(0 0 0)
(0 0 0)
(-0.015410361053 0.000365874648553 0)
(-0.000716912406191 1.51731951114e-05 0)
(-0.00339829954402 8.06828371551e-05 0)
(-2.63379054755e-05 5.39622584592e-07 0)
(-0.000121595242462 2.63969498988e-06 0)
(-3.37763054519e-06 7.34640552845e-08 0)
(-2.676425875e-05 5.48357897888e-07 0)
(0 0 0)
(0 0 0)
(0 0 0)
(0 0 0)
(0 0 0)
(-0.000363434863577 6.3469893503e-06 0)
(0 0 0)
(0 0 0)
(0 0 0)
(0 0 0)
(0 0 0)
(0 0 0)
(0 0 0)
(0 0 0)
(0 0 0)
(0 0 0)
(0 0 0)
(0 0 0)
(0 0 0)
(0 0 0)
(0 0 0)
(0 0 0)
(0 0 0)
(0 0 0)
(0 0 0)
(0 0 0)
(-0.00508431222176 8.37405699433e-05 0)
(0 0 0)
(0 0 0)
(0 0 0)
(0 0 0)
(0 0 0)
(-0.00435368470423 7.34356743343e-05 0)
(0 0 0)
(0 0 0)
(0 0 0)
(0 0 0)
(0 0 0)
(0 0 0)
(0 0 0)
(0 0 0)
(0 0 0)
(0 0 0)
(0 0 0)
(0 0 0)
(0 0 0)
(0 0 0)
(0 0 0)
(0 0 0)
(0 0 0)
(0 0 0)
(0 0 0)
(0 0 0)
(0 0 0)
(0 0 0)
(-0.0358874786912 0.00102176125332 0)
(-0.00821640755974 0.000180985941819 0)
(-0.013548506823 0.000298438125151 0)
(-0.0101712392487 0.000231698807277 0)
(-0.0192091750495 0.000546909158559 0)
(0 0 0)
(0 0 0)
(0 0 0)
(0 0 0)
(0 0 0)
(0 0 0)
(0 0 0)
(0 0 0)
(0 0 0)
(0 0 0)
(-0.00494328002076 8.33806594665e-05 0)
(0 0 0)
(-0.00792154649738 0.00018045125381 0)
(0 0 0)
(0 0 0)
(-0.129109855435 0.00364266977865 0)
(-0.100559632789 0.00283716168745 0)
(-0.185150327649 0.00484366612919 0)
(-0.0406049174675 0.00106638728713 0)
(-0.241216712398 0.00680562165758 0)
(-0.0522129216282 0.00148656696397 0)
(-0.0973980397565 0.00255791755939 0)
(-0.273305590157 0.00771096838612 0)
(-0.953973412992 0.0269151422207 0)
(-0.391885923516 0.0102520184455 0)
(-0.39102806256 0.010229576184 0)
(-0.510634363495 0.0144068968056 0)
(-0.209462190969 0.00547968201097 0)
(-0.510586294522 0.0144055406009 0)
(-0.0609909923179 0.00172078300093 0)
(-0.00897612885642 0.000204474430218 0)
(-0.0191615456406 0.000503230395415 0)
(-0.0191332827828 0.000502488141664 0)
(-0.0246652010073 0.000702249018705 0)
(-0.0246640757879 0.000702216982306 0)
(-0.0459566312194 0.00120693675417 0)
(-0.129103862928 0.00364250070769 0)
(-0.100534548266 0.00283645395964 0)
(-0.184377423733 0.00482344640522 0)
(-0.040455833614 0.00106247197007 0)
(-0.0522081132511 0.00148643006348 0)
(-0.0972297708104 0.00255349839353 0)
(-0.241171920253 0.00680435790437 0)
(0 0 0)
(0 0 0)
(0 0 0)
(0 0 0)
(0 0 0)
(0 0 0)
(0 0 0)
(0 0 0)
(0 0 0)
(0 0 0)
(0 0 0)
(0 0 0)
(0 0 0)
(0 0 0)
(0 0 0)
(0 0 0)
(0 0 0)
(0 0 0)
(0 0 0)
(0 0 0)
(0 0 0)
(0 0 0)
(0 0 0)
(-0.00492893017349 8.31386137552e-05 0)
(0 0 0)
(-0.007921064269 0.000180440268743 0)
(0 0 0)
(0 0 0)
(0 0 0)
(-0.0358773856554 0.00102147389201 0)
(-0.0134830681767 0.000296996683141 0)
(-0.00814993049411 0.00017952162615 0)
(-0.0192069745912 0.00054684650877 0)
(0 0 0)
(-0.010168023394 0.000231625550745 0)
(0 0 0)
(0 0 0)
(0 0 0)
(0 0 0)
(0 0 0)
(0 0 0)
(0 0 0)
(0 0 0)
(0 0 0)
(0 0 0)
(0 0 0)
(0 0 0)
(0 0 0)
(0 0 0)
(0 0 0)
(0 0 0)
(0 0 0)
(0 0 0)
(0 0 0)
(0 0 0)
(0 0 0)
(0 0 0)
(0 0 0)
(0 0 0)
(0 0 0)
(0 0 0)
(0 0 0)
(0 0 0)
(0 0 0)
(0 0 0)
(0 0 0)
(0 0 0)
(0 0 0)
(0 0 0)
(0 0 0)
(0 0 0)
(-0.0150724450531 0.000299559687551 0)
(0 0 0)
(0 0 0)
(0 0 0)
(0 0 0)
(0 0 0)
(0 0 0)
(0 0 0)
(-0.0033630679865 6.68398253699e-05 0)
(0 0 0)
(0 0 0)
(0 0 0)
(0 0 0)
(0 0 0)
(0 0 0)
(0 0 0)
(0 0 0)
(0 0 0)
(0 0 0)
(0 0 0)
(0 0 0)
(0 0 0)
(0 0 0)
(0 0 0)
(0 0 0)
(0 0 0)
(0 0 0)
(0 0 0)
(0 0 0)
(0 0 0)
(0 0 0)
(0 0 0)
(0 0 0)
(0 0 0)
(0 0 0)
(0 0 0)
(-0.322940191041 0.00883536038011 0)
(-0.00773642031461 0.000153758706304 0)
(0 0 0)
(0 0 0)
(0 0 0)
(0 0 0)
(0 0 0)
(0 0 0)
(-0.0709050614846 0.00195738546052 0)
(0 0 0)
(0 0 0)
(0 0 0)
(0 0 0)
(0 0 0)
(0 0 0)
(0 0 0)
(0 0 0)
(0 0 0)
(0 0 0)
(0 0 0)
(0 0 0)
(0 0 0)
(0 0 0)
(0 0 0)
(0 0 0)
(0 0 0)
(0 0 0)
(0 0 0)
(0 0 0)
(0 0 0)
(0 0 0)
(0 0 0)
(0 0 0)
(0 0 0)
(0 0 0)
(0 0 0)
(-1.52023940284 0.0542148938858 0)
(-0.0434382010818 0.00155522800023 0)
(0 0 0)
(0 0 0)
(0 0 0)
(0 0 0)
(0 0 0)
(0 0 0)
(-0.333474250782 0.0117652089411 0)
(-0.00658434646523 0.000255490385396 0)
(0 0 0)
(0 0 0)
(0 0 0)
(0 0 0)
(0 0 0)
(0 0 0)
(0 0 0)
(0 0 0)
(0 0 0)
(0 0 0)
(0 0 0)
(0 0 0)
(0 0 0)
(0 0 0)
(0 0 0)
(0 0 0)
(0 0 0)
(0 0 0)
(0 0 0)
(0 0 0)
(0 0 0)
(0 0 0)
(0 0 0)
(0 0 0)
(0 0 0)
(0 0 0)
(0 0 0)
(0 0 0)
(0 0 0)
(0 0 0)
(0 0 0)
(0 0 0)
(0 0 0)
(-2.56161155708 0.0809781605764 0)
(-0.0773403242197 0.00244489730552 0)
(0 0 0)
(0 0 0)
(0 0 0)
(0 0 0)
(0 0 0)
(0 0 0)
(-2.56138876389 0.0809711175951 0)
(-0.571516518658 0.0180668908571 0)
(-0.0160208694459 0.000520976496799 0)
(0 0 0)
(0 0 0)
(0 0 0)
(0 0 0)
(0 0 0)
(0 0 0)
(-0.0469129319333 0.00148302068856 0)
(-0.0773459732224 0.00244507588289 0)
(-0.016020917527 0.000520978060329 0)
(0 0 0)
(0 0 0)
(0 0 0)
(0 0 0)
(0 0 0)
(0 0 0)
(0 0 0)
(0 0 0)
(0 0 0)
(0 0 0)
(0 0 0)
(0 0 0)
(0 0 0)
(0 0 0)
(0 0 0)
(0 0 0)
(0 0 0)
(0 0 0)
(0 0 0)
(0 0 0)
(0 0 0)
(0 0 0)
(0 0 0)
(0 0 0)
(0 0 0)
(0 0 0)
(-0.0693757849945 0.00164556339819 0)
(-0.00219849670667 5.21969736548e-05 0)
(0 0 0)
(0 0 0)
(0 0 0)
(0 0 0)
(0 0 0)
(0 0 0)
(-0.0412594786036 0.000978656858787 0)
(-0.0684256520018 0.00162302665751 0)
(-0.0152686577504 0.00036251031167 0)
(-0.000383345050469 6.69469882133e-06 0)
(0 0 0)
(0 0 0)
(0 0 0)
(0 0 0)
(0 0 0)
(0 0 0)
(-0.00119763526344 2.53475227483e-05 0)
(-0.00214672103147 5.0967709337e-05 0)
(-0.000390547809033 6.82048706148e-06 0)
(0 0 0)
(0 0 0)
(0 0 0)
(0 0 0)
(0 0 0)
(0 0 0)
(0 0 0)
(0 0 0)
(0 0 0)
(0 0 0)
(0 0 0)
(0 0 0)
(0 0 0)
(0 0 0)
(0 0 0)
(0 0 0)
(0 0 0)
(0 0 0)
(0 0 0)
(0 0 0)
(0 0 0)
(0 0 0)
(0 0 0)
(0 0 0)
(0 0 0)
(0 0 0)
(-0.000186540571182 3.77535284134e-06 0)
(-0.000186658540288 3.77774039166e-06 0)
(-2.39619931024e-05 4.61408868573e-07 0)
(0 0 0)
(0 0 0)
(0 0 0)
(0 0 0)
(0 0 0)
(0 0 0)
(0 0 0)
(-2.43427222248e-05 4.68740136587e-07 0)
(-2.42097905405e-05 4.66180422219e-07 0)
(-2.39812965589e-06 5.21597395756e-08 0)
(0 0 0)
(0 0 0)
(0 0 0)
(0 0 0)
(0 0 0)
(0 0 0)
(0 0 0)
(0 0 0)
(0 0 0)
(0 0 0)
(0 0 0)
(0 0 0)
(0 0 0)
(0 0 0)
(0 0 0)
(0 0 0)
(0 0 0)
(0 0 0)
(0 0 0)
(0 0 0)
(0 0 0)
(0 0 0)
(0 0 0)
(0 0 0)
(0 0 0)
(0 0 0)
(0 0 0)
(0 0 0)
(0 0 0)
(0 0 0)
(0 0 0)
(0 0 0)
(0 0 0)
(0 0 0)
(0 0 0)
(0 0 0)
(-0.00336310382806 6.68405377086e-05 0)
(-0.0091417685242 0.000181689521051 0)
(-0.0020398082974 4.05404918764e-05 0)
(-0.0869044429072 0.00206606022673 0)
(-0.0178055321719 0.000353878858757 0)
(-0.0527098186358 0.00125311958973 0)
(-0.0107997495405 0.000214641326378 0)
(0 0 0)
(0 0 0)
(0 0 0)
(-0.00240935922483 4.78851900964e-05 0)
(0 0 0)
(0 0 0)
(0 0 0)
(0 0 0)
(0 0 0)
(0 0 0)
(-0.01780555695 0.000353879351214 0)
(-0.00397298670925 7.89617512668e-05 0)
(-0.00397297840524 7.89615862275e-05 0)
(0 0 0)
(0 0 0)
(0 0 0)
(0 0 0)
(0 0 0)
(0 0 0)
(0 0 0)
(0 0 0)
(-0.0708995297324 0.0019572327525 0)
(-0.195875085218 0.00535897053199 0)
(-0.0430051541091 0.00118718835606 0)
(-0.805184500773 0.0255523826202 0)
(-0.177669570487 0.0056581035579 0)
(-0.488362603204 0.0154980977434 0)
(-0.107759339973 0.00343172724078 0)
(0 0 0)
(-0.00469263490195 9.32645128288e-05 0)
(0 0 0)
(-0.0228874824981 0.000751526875609 0)
(0 0 0)
(-0.012224933865 0.000390189062142 0)
(0 0 0)
(-0.0149701149607 0.000403046600312 0)
(-0.0149698774676 0.000403040206186 0)
(-0.00284672779316 5.65777407219e-05 0)
(-0.177675604197 0.00565829570874 0)
(-0.0377450285842 0.00123938503958 0)
(-0.0377454061052 0.00123939743575 0)
(-0.00741707550661 0.00023673434701 0)
(0 0 0)
(0 0 0)
(0 0 0)
(-0.00336267628779 6.68320404921e-05 0)
(0 0 0)
(0 0 0)
(0 0 0)
(-0.333455794365 0.0117645577856 0)
(-0.906472713618 0.0319810025815 0)
(-0.202246303791 0.00713539356066 0)
(-2.2308747179 0.0791239595896 0)
(-0.491952519618 0.0173201461388 0)
(-1.33752191587 0.0470900628066 0)
(-0.29841712208 0.0105063557125 0)
(0 0 0)
(-0.0263459630471 0.000943270632844 0)
(0 0 0)
(-0.0665613448629 0.0023434217211 0)
(0 0 0)
(-0.0403741117594 0.00142144920091 0)
(0 0 0)
(-0.0744048107052 0.00262505468449 0)
(-0.0744060177606 0.00262509727026 0)
(-0.014085830859 0.000549181323666 0)
(-0.492019170164 0.017322492701 0)
(-0.109781685377 0.00386507794608 0)
(-0.109781854344 0.0038650838949 0)
(-0.0244956311889 0.000862416381734 0)
(0 0 0)
(0 0 0)
(0 0 0)
(-0.0134358504264 0.000492147482487 0)
(0 0 0)
(0 0 0)
(0 0 0)
(-7.15360426688 0.231122229333 0)
(-4.24901779788 0.13499483228 0)
(-4.04031684184 0.105697603059 0)
(-1.93243678406 0.0505539402313 0)
(-0.571531329457 0.0180673590589 0)
(-1.55361456077 0.0491131643393 0)
(-0.346645699827 0.0109582309879 0)
(-2.46610585968 0.0645151082108 0)
(-0.262189244136 0.0068590597564 0)
(-1.1753397121 0.0307477346981 0)
(-0.124201143895 0.00324919151661 0)
(0 0 0)
(-0.0469100684771 0.00148293016843 0)
(0 0 0)
(-0.0945245282229 0.00248245191729 0)
(0 0 0)
(-0.0447995046199 0.00117654769856 0)
(0 0 0)
(0 0 0)
(0 0 0)
(0 0 0)
(0 0 0)
(0 0 0)
(0 0 0)
(0 0 0)
(0 0 0)
(0 0 0)
(0 0 0)
(0 0 0)
(0 0 0)
(0 0 0)
(0 0 0)
(0 0 0)
(0 0 0)
(0 0 0)
(0 0 0)
(0 0 0)
(0 0 0)
(0 0 0)
(0 0 0)
(0 0 0)
(0 0 0)
(0 0 0)
(0 0 0)
(0 0 0)
(0 0 0)
(0 0 0)
(0 0 0)
(0 0 0)
(0 0 0)
(0 0 0)
(0 0 0)
(0 0 0)
(0 0 0)
(0 0 0)
(0 0 0)
(0 0 0)
(0 0 0)
(0 0 0)
(0 0 0)
(-0.346646264921 0.0109582488517 0)
(-0.57151932226 0.0180669794851 0)
(-1.20640748156 0.0315604899577 0)
(-2.52028482035 0.0659324689039 0)
(-0.126259457796 0.00330303849301 0)
(-0.265367887912 0.00694221537048 0)
(-1.55354493771 0.0491109634016 0)
(-0.571516359112 0.0180668858135 0)
(-0.346641231374 0.0109580897303 0)
(-2.5047418026 0.0655258523476 0)
(-1.17279805718 0.0306812431719 0)
(-0.264082852733 0.00690859792326 0)
(-0.123130367048 0.00322117922188 0)
(-0.127521712956 0.00403124108345 0)
(-0.127521361193 0.00403122996346 0)
(-0.0284538605438 0.000899488949357 0)
(-0.712122592837 0.0186296407171 0)
(-0.074087630895 0.00194572757803 0)
(-0.0733776239705 0.00192708100994 0)
(-0.00542493095207 9.15048952202e-05 0)
(0 0 0)
(0 0 0)
(0 0 0)
(-0.027189111382 0.000714054467647 0)
(0 0 0)
(0 0 0)
(0 0 0)
(0 0 0)
(0 0 0)
(0 0 0)
(0 0 0)
(0 0 0)
(0 0 0)
(0 0 0)
(0 0 0)
(0 0 0)
(0 0 0)
(0 0 0)
(0 0 0)
(0 0 0)
(0 0 0)
(0 0 0)
(0 0 0)
(0 0 0)
(0 0 0)
(0 0 0)
(0 0 0)
(0 0 0)
(0 0 0)
(0 0 0)
(0 0 0)
(0 0 0)
(0 0 0)
(0 0 0)
(0 0 0)
(0 0 0)
(0 0 0)
(0 0 0)
(0 0 0)
(0 0 0)
(0 0 0)
(0 0 0)
(0 0 0)
(0 0 0)
(0 0 0)
(0 0 0)
(0 0 0)
(0 0 0)
(0 0 0)
(-0.0773461539312 0.00244508159549 0)
(0 0 0)
(0 0 0)
(-0.0456178022789 0.00119803825376 0)
(-0.0957934900082 0.00251577804625 0)
(0 0 0)
(0 0 0)
(-0.0469124500309 0.00148300545457 0)
(0 0 0)
(0 0 0)
(-0.0953180351425 0.00250329140532 0)
(-0.0444853594837 0.00116829745695 0)
(0 0 0)
(0 0 0)
(0 0 0)
(0 0 0)
(0 0 0)
(-0.0269437260193 0.000707610030679 0)
(0 0 0)
(0 0 0)
(0 0 0)
(0 0 0)
(0 0 0)
(0 0 0)
(0 0 0)
(0 0 0)
(0 0 0)
(0 0 0)
(0 0 0)
(0 0 0)
(0 0 0)
(0 0 0)
(0 0 0)
(0 0 0)
(0 0 0)
(0 0 0)
(0 0 0)
(0 0 0)
(0 0 0)
(0 0 0)
(0 0 0)
(0 0 0)
(0 0 0)
(0 0 0)
(0 0 0)
(0 0 0)
(0 0 0)
(0 0 0)
(0 0 0)
(0 0 0)
(0 0 0)
(0 0 0)
(0 0 0)
(0 0 0)
(0 0 0)
(0 0 0)
(0 0 0)
(0 0 0)
(0 0 0)
(0 0 0)
(0 0 0)
(0 0 0)
(0 0 0)
(0 0 0)
(0 0 0)
(0 0 0)
(0 0 0)
(0 0 0)
(0 0 0)
(0 0 0)
(0 0 0)
(0 0 0)
(0 0 0)
(0 0 0)
(0 0 0)
(0 0 0)
(0 0 0)
(0 0 0)
(0 0 0)
(0 0 0)
(0 0 0)
(0 0 0)
(0 0 0)
(0 0 0)
(0 0 0)
(0 0 0)
(0 0 0)
(0 0 0)
(0 0 0)
(0 0 0)
(0 0 0)
(0 0 0)
(0 0 0)
(0 0 0)
(0 0 0)
(0 0 0)
(0 0 0)
(0 0 0)
(0 0 0)
(0 0 0)
(0 0 0)
(0 0 0)
(0 0 0)
(0 0 0)
(0 0 0)
(0 0 0)
(0 0 0)
(0 0 0)
(0 0 0)
(0 0 0)
(0 0 0)
(0 0 0)
(0 0 0)
(0 0 0)
(0 0 0)
(0 0 0)
(0 0 0)
(0 0 0)
(0 0 0)
(0 0 0)
(0 0 0)
(0 0 0)
(0 0 0)
(0 0 0)
(0 0 0)
(0 0 0)
(0 0 0)
(0 0 0)
(0 0 0)
(0 0 0)
(0 0 0)
(0 0 0)
(0 0 0)
(0 0 0)
(0 0 0)
(0 0 0)
(0 0 0)
(0 0 0)
(0 0 0)
(0 0 0)
(0 0 0)
(0 0 0)
(0 0 0)
(0 0 0)
(0 0 0)
(0 0 0)
(0 0 0)
(0 0 0)
(0 0 0)
(0 0 0)
(0 0 0)
(0 0 0)
(0 0 0)
(0 0 0)
(0 0 0)
(0 0 0)
(0 0 0)
(0 0 0)
(0 0 0)
(0 0 0)
(0 0 0)
(0 0 0)
(0 0 0)
(0 0 0)
(0 0 0)
(0 0 0)
(0 0 0)
(0 0 0)
(0 0 0)
(0 0 0)
(0 0 0)
(0 0 0)
(0 0 0)
(0 0 0)
(0 0 0)
(0 0 0)
(0 0 0)
(0 0 0)
(0 0 0)
(0 0 0)
(0 0 0)
(0 0 0)
(0 0 0)
(0 0 0)
(0 0 0)
(0 0 0)
(0 0 0)
(0 0 0)
(0 0 0)
(0 0 0)
(0 0 0)
(-0.00171101656562 3.71398263457e-05 0)
(-0.00332263549418 7.21220984903e-05 0)
(-0.00095451072749 2.07213467742e-05 0)
(-0.00166953146851 3.62393386862e-05 0)
(-0.194510449082 0.00461370311847 0)
(-0.113565197048 0.00269371700206 0)
(-0.00326473371026 7.08652654221e-05 0)
(-0.00180359482617 3.91493571646e-05 0)
(-0.00166236670974 3.60838183354e-05 0)
(-0.00097232749937 2.11081287117e-05 0)
(-0.0156928196859 0.00037258081544 0)
(-0.0409625968727 0.00097161495346 0)
(-0.00934762468269 0.000221932431291 0)
(-0.000582818327717 1.26523257698e-05 0)
(-0.000132188281477 2.86965786877e-06 0)
(-0.00033762628373 7.32948420981e-06 0)
(-7.59931065275e-05 1.64972426967e-06 0)
(0 0 0)
(-0.00124199500504 2.6286380841e-05 0)
(0 0 0)
(-1.83751022228e-05 3.35022284724e-07 0)
(0 0 0)
(-1.07152198343e-05 1.95364215486e-07 0)
(0 0 0)
(0 0 0)
(0 0 0)
(0 0 0)
(0 0 0)
(0 0 0)
(0 0 0)
(0 0 0)
(0 0 0)
(0 0 0)
(0 0 0)
(0 0 0)
(0 0 0)
(0 0 0)
(0 0 0)
(0 0 0)
(0 0 0)
(0 0 0)
(0 0 0)
(0 0 0)
(0 0 0)
(0 0 0)
(0 0 0)
(0 0 0)
(0 0 0)
(0 0 0)
(0 0 0)
(0 0 0)
(0 0 0)
(0 0 0)
(0 0 0)
(0 0 0)
(0 0 0)
(0 0 0)
(0 0 0)
(0 0 0)
(0 0 0)
(0 0 0)
(0 0 0)
(0 0 0)
(0 0 0)
(0 0 0)
(0 0 0)
(-0.0682229713184 0.00161821915999 0)
(-0.0091931270607 0.000218264330138 0)
(-0.0152609511094 0.000362327339672 0)
(-0.000368767299118 8.00552038225e-06 0)
(-0.000669328756787 1.45303691995e-05 0)
(-8.59655944342e-05 1.86621568686e-06 0)
(-0.000155103656792 3.36712471193e-06 0)
(-0.0415272970757 0.000985009396277 0)
(-0.0154503347242 0.000366823708269 0)
(-0.00945728276301 0.000224535946644 0)
(-0.000653082177965 1.41776743748e-05 0)
(-0.000369024675491 8.01110773179e-06 0)
(-0.000133009674603 2.8874893832e-06 0)
(-8.09460588823e-05 1.75724725537e-06 0)
(-0.0034784818511 8.25865351491e-05 0)
(-0.00353382339859 8.39004608364e-05 0)
(-0.000759966035239 1.60844097983e-05 0)
(-0.000125425750247 2.72285097531e-06 0)
(-2.71030550713e-05 5.55299305843e-07 0)
(-2.76732932549e-05 5.66982596404e-07 0)
(-3.54408544489e-06 7.70844784749e-08 0)
(0 0 0)
(0 0 0)
(0 0 0)
(0 0 0)
(0 0 0)
(0 0 0)
(0 0 0)
(0 0 0)
(0 0 0)
(0 0 0)
(0 0 0)
(0 0 0)
(0 0 0)
(0 0 0)
(0 0 0)
(0 0 0)
(0 0 0)
(0 0 0)
(0 0 0)
(0 0 0)
(0 0 0)
(0 0 0)
(0 0 0)
(0 0 0)
(0 0 0)
(0 0 0)
(0 0 0)
(0 0 0)
(0 0 0)
(0 0 0)
(0 0 0)
(0 0 0)
(0 0 0)
(0 0 0)
(0 0 0)
(0 0 0)
(0 0 0)
(0 0 0)
(0 0 0)
(0 0 0)
(0 0 0)
(0 0 0)
(0 0 0)
(0 0 0)
(0 0 0)
(0 0 0)
(0 0 0)
(0 0 0)
(0 0 0)
(-0.00210813718993 5.00516471231e-05 0)
(0 0 0)
(0 0 0)
(-1.0130215997e-05 1.84698189262e-07 0)
(-1.8540028288e-05 3.38029283352e-07 0)
(0 0 0)
(0 0 0)
(-0.00124997632381 2.64553026032e-05 0)
(0 0 0)
(0 0 0)
(-1.58932185746e-05 2.89771579713e-07 0)
(-1.00852352248e-05 1.83878081658e-07 0)
(0 0 0)
(0 0 0)
(0 0 0)
(0 0 0)
(0 0 0)
(0 0 0)
(0 0 0)
(0 0 0)
(0 0 0)
(0 0 0)
(0 0 0)
(0 0 0)
(0 0 0)
(0 0 0)
(0 0 0)
(0 0 0)
(0 0 0)
(0 0 0)
(0 0 0)
(0 0 0)
(0 0 0)
(0 0 0)
(0 0 0)
(0 0 0)
(0 0 0)
(0 0 0)
(0 0 0)
(0 0 0)
(0 0 0)
(0 0 0)
(0 0 0)
(0 0 0)
(0 0 0)
(0 0 0)
(0 0 0)
(0 0 0)
(0 0 0)
(0 0 0)
(0 0 0)
(0 0 0)
(0 0 0)
(0 0 0)
(0 0 0)
(0 0 0)
(0 0 0)
(0 0 0)
(0 0 0)
(0 0 0)
(0 0 0)
(0 0 0)
(0 0 0)
(0 0 0)
(0 0 0)
(0 0 0)
(0 0 0)
(0 0 0)
(0 0 0)
(0 0 0)
(0 0 0)
(0 0 0)
(0 0 0)
(0 0 0)
(0 0 0)
(0 0 0)
(0 0 0)
(0 0 0)
(0 0 0)
(0 0 0)
(0 0 0)
(0 0 0)
(0 0 0)
(0 0 0)
(0 0 0)
(0 0 0)
(0 0 0)
(0 0 0)
(0 0 0)
(0 0 0)
(0 0 0)
(0 0 0)
(0 0 0)
(0 0 0)
(0 0 0)
(0 0 0)
(0 0 0)
(0 0 0)
(0 0 0)
(0 0 0)
(0 0 0)
(0 0 0)
(0 0 0)
(0 0 0)
(0 0 0)
(0 0 0)
(0 0 0)
(0 0 0)
(0 0 0)
(0 0 0)
(0 0 0)
(0 0 0)
(0 0 0)
(0 0 0)
(0 0 0)
(0 0 0)
(0 0 0)
(0 0 0)
(0 0 0)
(0 0 0)
(0 0 0)
(0 0 0)
(0 0 0)
(0 0 0)
(0 0 0)
(0 0 0)
(0 0 0)
(0 0 0)
(0 0 0)
(0 0 0)
(0 0 0)
(0 0 0)
(0 0 0)
(0 0 0)
(0 0 0)
(0 0 0)
(0 0 0)
(0 0 0)
(0 0 0)
(0 0 0)
(0 0 0)
(0 0 0)
(0 0 0)
(0 0 0)
(0 0 0)
(0 0 0)
(0 0 0)
(0 0 0)
(0 0 0)
(0 0 0)
(0 0 0)
(0 0 0)
(0 0 0)
(0 0 0)
(0 0 0)
(0 0 0)
(0 0 0)
(0 0 0)
(0 0 0)
(0 0 0)
(0 0 0)
(0 0 0)
(0 0 0)
(0 0 0)
(0 0 0)
(0 0 0)
(0 0 0)
(0 0 0)
(0 0 0)
(0 0 0)
(0 0 0)
(0 0 0)
(0 0 0)
(0 0 0)
(0 0 0)
(0 0 0)
(0 0 0)
(0 0 0)
(0 0 0)
(0 0 0)
(0 0 0)
(0 0 0)
(0 0 0)
(0 0 0)
(0 0 0)
(0 0 0)
(0 0 0)
(0 0 0)
(0 0 0)
(0 0 0)
(0 0 0)
(0 0 0)
(0 0 0)
(0 0 0)
(0 0 0)
(0 0 0)
(-7.06219061651 0.199741587943 0)
(-5.48517107132 0.154757100648 0)
(-5.84945902725 0.153026067651 0)
(-3.58444673633 0.0937717122573 0)
(-4.84157686436 0.136598911565 0)
(-5.19553475284 0.135918936925 0)
(-8.00936574489 0.226783208003 0)
(-5.48735502937 0.154818718236 0)
(-2.5920174268 0.0731304633135 0)
(-2.8024990741 0.0733153973567 0)
(-2.8089710263 0.0734847082949 0)
(-3.77126642749 0.106401468705 0)
(-3.77166778748 0.106412792565 0)
(-4.06595635216 0.106368351144 0)
(-1.57179907487 0.0443463046941 0)
(-3.32676694721 0.0938604832166 0)
(-1.32831077327 0.0347495680036 0)
(-2.18749570882 0.0572264656894 0)
(-2.93645132817 0.0828482262142 0)
(-1.17747390276 0.0308035666652 0)
(-1.7807426624 0.0502413813261 0)
(-0.742538283575 0.0209497699145 0)
(-0.35075094391 0.00989599019304 0)
(-0.629043800116 0.0164562395708 0)
(-0.231868439295 0.00606584562988 0)
(-0.309571376647 0.00873416126323 0)
(-0.556564117904 0.014560118801 0)
(-0.841270079524 0.0237353615185 0)
(-1.22446902791 0.0345468307421 0)
(-1.57214128044 0.0443559595872 0)
(-1.70808473016 0.0446847286653 0)
(-0.631123157694 0.016510637065 0)
(-2.28746371533 0.0645378690688 0)
(-0.841554220131 0.0237433781831 0)
(-0.91826043789 0.0240223554409 0)
(-0.57846347232 0.0163206085358 0)
(-0.165725384693 0.00467573020154 0)
(-0.180733132288 0.00472810911222 0)
(-0.29818360595 0.00780069822592 0)
(-0.241140218585 0.00680346348227 0)
(-0.397558231241 0.0112165980615 0)
(-0.433841458741 0.0113496055115 0)
(-0.0358658521229 0.00102114551796 0)
(-0.12905245425 0.00364105027747 0)
(-0.0304936816269 0.000800840795965 0)
(-0.0835671964184 0.0021946848175 0)
(-0.113888377989 0.0032132152208 0)
(-0.0269679305084 0.000708245701458 0)
(-0.0406415939774 0.00115711684169 0)
(-0.00897022471781 0.000204339935115 0)
(0 0 0)
(-0.00785896283768 0.000173112370651 0)
(0 0 0)
(0 0 0)
(-0.00537602177207 9.06799207771e-05 0)
(-0.0101644128541 0.000231543303364 0)
(-0.0279362238749 0.000795379117189 0)
(-0.0609666689646 0.00172009674856 0)
(-0.0651856492439 0.00171193914414 0)
(-0.013133781528 0.000289302812964 0)
(-0.0887092068819 0.00250281704605 0)
(-0.0191996313966 0.000546637438867 0)
(-0.0210465283506 0.000552734783644 0)
(-0.00508205852429 8.37034506827e-05 0)
(0 0 0)
(0 0 0)
(0 0 0)
(0 0 0)
(0 0 0)
(-0.00419963218265 7.08371970505e-05 0)
(0 0 0)
(0 0 0)
(0 0 0)
(0 0 0)
(0 0 0)
(0 0 0)
(0 0 0)
(0 0 0)
(0 0 0)
(0 0 0)
(0 0 0)
(0 0 0)
(0 0 0)
(0 0 0)
(0 0 0)
(0 0 0)
(0 0 0)
(0 0 0)
(0 0 0)
(0 0 0)
(0 0 0)
(0 0 0)
(0 0 0)
(0 0 0)
(0 0 0)
(0 0 0)
(0 0 0)
(0 0 0)
(0 0 0)
(0 0 0)
(0 0 0)
(0 0 0)
(0 0 0)
(0 0 0)
(0 0 0)
(0 0 0)
(0 0 0)
(0 0 0)
(0 0 0)
(0 0 0)
(0 0 0)
(0 0 0)
(0 0 0)
(0 0 0)
(0 0 0)
(0 0 0)
(0 0 0)
(0 0 0)
(0 0 0)
(0 0 0)
(0 0 0)
(0 0 0)
(0 0 0)
(0 0 0)
(0 0 0)
(0 0 0)
(0 0 0)
(0 0 0)
(0 0 0)
(0 0 0)
(0 0 0)
(0 0 0)
(0 0 0)
(0 0 0)
(0 0 0)
(0 0 0)
(0 0 0)
(0 0 0)
(0 0 0)
(0 0 0)
(0 0 0)
(0 0 0)
(0 0 0)
(0 0 0)
(0 0 0)
(0 0 0)
(0 0 0)
(0 0 0)
(0 0 0)
(0 0 0)
(0 0 0)
(0 0 0)
(0 0 0)
(0 0 0)
(0 0 0)
(0 0 0)
(0 0 0)
(0 0 0)
(0 0 0)
(0 0 0)
(0 0 0)
(0 0 0)
(0 0 0)
(0 0 0)
(0 0 0)
(0 0 0)
(0 0 0)
(0 0 0)
(0 0 0)
(0 0 0)
(0 0 0)
(0 0 0)
(0 0 0)
(0 0 0)
(0 0 0)
(0 0 0)
(0 0 0)
(0 0 0)
(0 0 0)
(0 0 0)
(0 0 0)
(0 0 0)
(0 0 0)
(0 0 0)
(0 0 0)
(0 0 0)
(0 0 0)
(0 0 0)
(0 0 0)
(0 0 0)
(0 0 0)
(0 0 0)
(0 0 0)
(0 0 0)
(0 0 0)
(0 0 0)
(0 0 0)
(0 0 0)
(0 0 0)
(0 0 0)
(0 0 0)
(0 0 0)
(0 0 0)
(0 0 0)
(0 0 0)
(0 0 0)
(0 0 0)
(0 0 0)
(0 0 0)
(0 0 0)
(0 0 0)
(0 0 0)
(0 0 0)
(0 0 0)
(0 0 0)
(0 0 0)
(0 0 0)
(0 0 0)
(0 0 0)
(0 0 0)
(0 0 0)
(0 0 0)
(0 0 0)
(0 0 0)
(0 0 0)
(0 0 0)
(0 0 0)
(0 0 0)
(0 0 0)
(0 0 0)
(0 0 0)
(0 0 0)
(0 0 0)
(0 0 0)
(0 0 0)
(0 0 0)
(0 0 0)
(0 0 0)
(-1.22484334034 0.0345573914896 0)
(-1.57283352629 0.0443754904205 0)
(-1.75351832816 0.0458733043624 0)
(-0.644046058348 0.016848709468 0)
(-2.2884782435 0.0645664926863 0)
(-0.93549693628 0.0244732746723 0)
(-0.841820845338 0.023750900673 0)
(-1.57270719419 0.0443719261214 0)
(-3.32921102778 0.0939294398305 0)
(-2.23984087374 0.0585958529627 0)
(-1.34976874016 0.0353109238961 0)
(-2.93829527061 0.0829002506966 0)
(-1.78198967511 0.0502765641981 0)
(-1.19648566035 0.0313009279578 0)
(-0.578491783494 0.0163214072994 0)
(-0.165733574643 0.00467596127052 0)
(-0.303612859881 0.00794273142515 0)
(-0.183368544612 0.00479705339965 0)
(-0.241119695752 0.00680288445673 0)
(-0.441176813966 0.0115415036956 0)
(-0.397606717912 0.011217966051 0)
(-0.742763679304 0.0209561291673 0)
(-0.35078148977 0.00989685200549 0)
(-0.637952594163 0.0166893000494 0)
(-0.234872392292 0.0061444312072 0)
(-0.841613436849 0.0237450489072 0)
(-0.309588250106 0.00873463732636 0)
(-0.564919174526 0.0147786931092 0)
(-1.57226828336 0.0443595428126 0)
(-3.32881845142 0.0939183637896 0)
(-2.19810122 0.057503913512 0)
(-1.34339241208 0.0351441145539 0)
(-2.9372645508 0.0828711702526 0)
(-1.78182239944 0.0502718447283 0)
(-1.1800965999 0.0308721783143 0)
(-1.2243085667 0.0345423035339 0)
(-1.57187168282 0.0443483532346 0)
(-1.7073220092 0.0446647753347 0)
(-0.627813124923 0.01642404422 0)
(-2.28717191548 0.0645296363086 0)
(-0.841323124453 0.0237368581135 0)
(-0.91599675956 0.0239631359829 0)
(-0.742556051605 0.0209502712168 0)
(-0.35074293785 0.00989576431226 0)
(-0.63466528678 0.016603301717 0)
(-0.231800227421 0.00606406115808 0)
(-0.841538128597 0.023742924181 0)
(-0.309482141456 0.00873164360622 0)
(-0.557113054397 0.0145744793757 0)
(-0.578197881284 0.0163131152237 0)
(-0.165610911646 0.00467250049062 0)
(-0.296113461269 0.00774654174778 0)
(-0.179723805776 0.00470170440258 0)
(-0.397346649791 0.0112106285609 0)
(-0.240973749455 0.00679876676824 0)
(-0.432042928396 0.0113025546603 0)
(-0.273128814565 0.00770598088843 0)
(-0.95340134599 0.0268990020804 0)
(-0.381871336695 0.00999002963023 0)
(-0.38078521587 0.00996161592599 0)
(-0.510344674436 0.0143987235985 0)
(-0.51026678432 0.0143965260283 0)
(-0.203855715136 0.00533301255895 0)
(-0.129018957904 0.00364010522082 0)
(-0.100500415085 0.0028354909355 0)
(-0.180647555838 0.00472587037056 0)
(-0.0395298416542 0.00103815309158 0)
(-0.241087651284 0.00680198036296 0)
(-0.0521732031649 0.00148543612981 0)
(-0.0948197854469 0.00249020611481 0)
(-0.129007314012 0.00363977670327 0)
(-0.100451030569 0.00283409761441 0)
(-0.179413970718 0.00469359889396 0)
(-0.039251666105 0.00103084750182 0)
(-0.24100704405 0.00679970613276 0)
(-0.0521610568546 0.00148509030921 0)
(-0.0944713328969 0.00248105487421 0)
(-0.0609428612642 0.00171942504469 0)
(-0.00896769059828 0.000204282208376 0)
(-0.0186096527839 0.000488736300536 0)
(-0.0185454810593 0.000487050989606 0)
(-0.0246441933578 0.000701650904736 0)
(-0.024641218857 0.000701566216992 0)
(-0.0446362469439 0.00117226014126 0)
(0 0 0)
(-0.0358639796518 0.00102109220638 0)
(-0.00797514489832 0.000175671557195 0)
(-0.0131692324505 0.00029008370395 0)
(-0.0101638789972 0.00023153114221 0)
(-0.0191938140222 0.000546471810966 0)
(0 0 0)
(0 0 0)
(0 0 0)
(0 0 0)
(0 0 0)
(0 0 0)
(0 0 0)
(0 0 0)
(0 0 0)
(0 0 0)
(-0.00479778503379 8.09265261964e-05 0)
(0 0 0)
(-0.00791427735428 0.000180285664175 0)
(0 0 0)
(0 0 0)
(0 0 0)
(0 0 0)
(0 0 0)
(0 0 0)
(0 0 0)
(0 0 0)
(0 0 0)
(0 0 0)
(0 0 0)
(0 0 0)
(0 0 0)
(0 0 0)
(0 0 0)
(0 0 0)
(0 0 0)
(0 0 0)
(0 0 0)
(0 0 0)
(0 0 0)
(0 0 0)
(0 0 0)
(0 0 0)
(0 0 0)
(0 0 0)
(0 0 0)
(0 0 0)
(0 0 0)
(0 0 0)
(0 0 0)
(0 0 0)
(0 0 0)
(0 0 0)
(0 0 0)
(0 0 0)
(0 0 0)
(0 0 0)
(0 0 0)
(0 0 0)
(0 0 0)
(0 0 0)
(0 0 0)
(0 0 0)
(0 0 0)
(0 0 0)
(0 0 0)
(0 0 0)
(0 0 0)
(0 0 0)
(0 0 0)
(0 0 0)
(0 0 0)
(0 0 0)
(0 0 0)
(0 0 0)
(0 0 0)
(0 0 0)
(0 0 0)
(0 0 0)
(0 0 0)
(0 0 0)
(0 0 0)
(0 0 0)
(0 0 0)
(0 0 0)
(0 0 0)
(0 0 0)
(0 0 0)
(0 0 0)
(0 0 0)
(0 0 0)
(0 0 0)
(0 0 0)
(0 0 0)
(0 0 0)
(0 0 0)
(0 0 0)
(0 0 0)
(0 0 0)
(0 0 0)
(0 0 0)
(0 0 0)
(0 0 0)
(0 0 0)
(0 0 0)
(0 0 0)
(0 0 0)
(0 0 0)
(0 0 0)
(0 0 0)
(0 0 0)
(0 0 0)
(0 0 0)
(0 0 0)
(0 0 0)
(0 0 0)
(0 0 0)
(0 0 0)
(0 0 0)
(0 0 0)
(0 0 0)
(0 0 0)
(0 0 0)
(0 0 0)
(0 0 0)
(0 0 0)
(0 0 0)
(0 0 0)
(0 0 0)
(0 0 0)
(0 0 0)
(0 0 0)
(0 0 0)
(0 0 0)
(0 0 0)
(0 0 0)
(0 0 0)
(0 0 0)
(0 0 0)
(0 0 0)
(0 0 0)
(0 0 0)
(0 0 0)
(0 0 0)
(0 0 0)
(0 0 0)
(0 0 0)
(0 0 0)
(0 0 0)
(0 0 0)
(0 0 0)
(0 0 0)
(0 0 0)
(0 0 0)
(0 0 0)
(0 0 0)
(0 0 0)
(0 0 0)
(0 0 0)
(0 0 0)
(0 0 0)
(0 0 0)
(0 0 0)
(0 0 0)
(0 0 0)
(0 0 0)
(0 0 0)
(0 0 0)
(0 0 0)
(0 0 0)
(0 0 0)
(0 0 0)
(0 0 0)
(0 0 0)
(0 0 0)
(0 0 0)
(0 0 0)
(0 0 0)
(0 0 0)
(0 0 0)
(0 0 0)
(0 0 0)
(0 0 0)
(0 0 0)
(0 0 0)
(0 0 0)
(0 0 0)
(0 0 0)
(0 0 0)
(0 0 0)
(0 0 0)
(0 0 0)
(0 0 0)
(0 0 0)
(0 0 0)
(0 0 0)
(-0.0279312745143 0.000795238202722 0)
(-0.0609680592109 0.00172013597259 0)
(-0.0662218279278 0.00173915180321 0)
(-0.0134045364227 0.000295266834255 0)
(-0.0886931812786 0.00250236490411 0)
(-0.0214396132873 0.000563058183011 0)
(-0.0192003082879 0.000546656710806 0)
(-0.0358593638276 0.00102096078811 0)
(-0.129017282992 0.00364005796531 0)
(-0.0848090444948 0.00222729887224 0)
(-0.0310007693197 0.000814158194515 0)
(-0.113870359403 0.0032127068494 0)
(-0.0406283164864 0.00115673881497 0)
(-0.0274547544703 0.000721030923456 0)
(-0.00508165816724 8.36968566486e-05 0)
(0 0 0)
(0 0 0)
(0 0 0)
(0 0 0)
(-0.00429473296525 7.24413072638e-05 0)
(0 0 0)
(-0.00896964328977 0.0002043266903 0)
(0 0 0)
(-0.00803730324699 0.000177040742839 0)
(0 0 0)
(-0.0101626756152 0.000231503729408 0)
(0 0 0)
(-0.00550091566321 9.27865655479e-05 0)
(-0.0358438082593 0.00102051790169 0)
(-0.129001871064 0.00363962313743 0)
(-0.0836844379827 0.00219776387593 0)
(-0.0308487388859 0.000810165492843 0)
(-0.113829293411 0.00321154822484 0)
(-0.0406222448453 0.00115656594778 0)
(-0.0270828507402 0.000711263795861 0)
(-0.0279099628081 0.00079463143188 0)
(-0.0609175356959 0.0017187105161 0)
(-0.0649090386975 0.00170467465529 0)
(-0.0130636818095 0.00028775869974 0)
(-0.088636046352 0.00250075291508 0)
(-0.0191820076473 0.000546135668755 0)
(-0.0210149111267 0.000551904435802 0)
(-0.00896597280699 0.000204243077432 0)
(0 0 0)
(-0.00799988363765 0.000176216486838 0)
(0 0 0)
(-0.0101612602634 0.000231471487976 0)
(0 0 0)
(-0.00543193039822 9.16229582134e-05 0)
(-0.00507794622577 8.36357195506e-05 0)
(0 0 0)
(0 0 0)
(0 0 0)
(0 0 0)
(0 0 0)
(-0.00421568906373 7.11080361144e-05 0)
(0 0 0)