/*--------------------------------*- C++ -*----------------------------------*\
| =========                 |                                                 |
| \\      /  F ield         | OpenFOAM: The Open Source CFD Toolbox           |
|  \\    /   O peration     | Version:  v1906                                 |
|   \\  /    A nd           | Web:      www.OpenFOAM.com                      |
|    \\/     M anipulation  |                                                 |
\*---------------------------------------------------------------------------*/
FoamFile
{
    version     2.0;
    format      ascii;
    class       volScalarField;
    location    "12.4";
    object      p_rgh;
}
// * * * * * * * * * * * * * * * * * * * * * * * * * * * * * * * * * * * * * //

dimensions      [1 -1 -2 0 0 0 0];


internalField   nonuniform List<scalar> 
28582
(
19543.8377734
19543.0266595
19543.5317149
19542.9998056
19542.3746114
19543.0450998
19540.1470862
19542.3416942
1339.11844796
1352.22112405
-0.108129923574
19541.2043491
16784.5517053
16844.1759011
19543.5024716
19545.0927114
16866.7533966
19511.7852275
19517.2235836
19545.0203402
19542.647699
19542.7194562
19544.6609542
19542.836349
19542.8335011
19543.4171954
19542.9116454
19542.4201774
19543.9110101
1358.35550729
-0.112502680895
-0.0624796779627
19541.1108028
19540.5722307
16936.1266629
16838.6926728
19504.4292245
19543.4266344
19545.9240363
19545.4594189
19508.6298175
16866.4513146
19515.8568778
19516.0380383
1349.56013107
1327.62098621
3.79885777164
8.25248377399
1359.30391711
6.58504568928
19506.2121552
19508.1356092
16796.5859141
16796.2989102
19504.985138
16808.7273125
19509.3396454
19510.6548767
19512.1871601
16820.6706624
16858.9244361
19512.322046
16832.8165677
19511.0450151
19514.2308695
19512.6936654
16887.3908298
16887.2614945
19513.54749
16920.3981852
19512.1945921
19508.0397542
16923.5230938
16965.8183256
19513.7144228
16903.3556086
16944.2989622
19510.711276
19519.5467719
17026.7358569
17053.4415894
19517.5541047
17024.8884404
19519.3914383
16999.1129596
1325.84047828
12.7108899508
1301.05882368
1317.17138501
10.9693979762
11.4746761209
1339.46683142
3.89842947457
6.79905292465
1354.13010399
5.1328364712
1367.15499309
6.39535728837
19506.2151963
19507.3782122
16904.4878305
16907.895634
19506.716761
19506.7276253
16871.6964664
19506.5290365
19507.9956663
16871.3871291
16807.4143364
19506.8079845
19507.7570378
16838.1008841
16781.5176295
16770.02463
19506.6441336
19506.0088709
16784.3022352
19507.869371
16804.7111923
19504.5585707
16918.7374998
16963.8011692
19506.1799633
16908.586483
19501.6812413
16960.5584402
19505.3296644
19499.3806224
16889.5215577
16923.3010193
19500.2659533
19504.4557753
16948.0533724
19517.9317629
19519.1522476
17024.9459103
17053.4621552
17052.3572232
19513.2662595
17020.0083514
17034.5858925
17013.3193523
19513.9539789
19511.2447825
16968.8677112
19509.8403969
16996.118418
19541.9874693
19542.3679473
1382.06805521
-0.0720495012463
19540.2326418
16776.1223003
19544.1023929
19542.3062992
16841.2832779
16961.3116028
16759.6023453
19541.0696665
19540.4251405
16720.5227581
16678.232118
1346.05726317
1375.53969278
1400.92650015
5.75769135567
5.51189802048
5.50218287098
1418.18692058
1425.0451106
19511.1350281
19509.3066231
16790.2138665
16789.4460575
19510.0909222
16801.5577192
19511.0707921
19502.7602181
19498.6339865
16818.023084
16888.1874229
19498.1094061
19503.5022468
16842.9270698
19506.4604648
19511.7286784
16919.462266
16890.0121737
19508.2452294
16860.5784467
19509.0135485
19505.0170295
19503.5519254
16763.1059437
16823.7966856
19503.6700908
16809.3339299
19506.2189703
19501.0908253
19501.4163683
16734.4747115
16686.2415468
19502.589425
16709.971013
19499.7882437
19500.4588044
19499.0670691
16693.1410975
16677.1402017
19500.5582755
16704.4184418
19499.2994071
19570.0546961
19564.7966931
19563.7292283
19559.7105475
1151.82017479
1140.07412871
1099.61087879
1112.45282941
1129.39549304
-0.146995358425
-0.118548887518
-0.0623072859198
-0.107300087589
-0.0557955988174
-0.0694787457818
19569.9165791
19569.4011535
17573.8696898
17677.2832594
19572.8571509
17687.3285189
19567.769939
19565.9014865
17696.158612
17731.0601547
19570.9156682
19567.2709364
19567.5755135
17702.5672804
17733.5798546
17721.6151496
17705.3635989
19566.6410033
19564.4209695
17742.9056061
17740.8035462
17697.356205
17634.4717542
19564.6560025
19562.7686886
17706.4813272
17678.8204102
17618.4161074
19561.6722924
19561.5409833
19559.4007541
17670.3207212
17613.3431912
17598.7670031
17489.9852642
17561.0575662
17459.3518604
1219.24779949
1172.92847296
1197.10089813
0.963855271495
0.870153622331
0.865565189567
0.737632584393
0.917779337317
1.13656502531
0.604165060597
0.839207827087
1134.14031029
1101.84591895
1147.5496781
1117.32008838
1120.58500563
0.929530719256
0.742229780845
1.40465916882
1.11430639205
1132.03356775
1119.75805265
1118.60973311
0.49250408024
0.656663149133
0.86725689257
0.945957801013
1107.64747348
1109.74177965
1.85987463908
1.57745985289
1.95041875554
1123.79408127
1120.06720382
1136.56318971
1.42653911808
1.31013925564
1.85950894689
1.91933247331
19558.4415454
19560.8312649
17549.8698061
17612.495465
19561.2615707
17591.7598042
19557.9264854
19558.9908442
19561.1231392
17647.1793197
17667.2770638
19561.438057
19559.1274075
17631.1979322
19563.9701609
19562.5433946
17662.6075765
17703.0659899
19562.8154865
19563.4281841
17681.5165523
19558.7989099
19560.9098364
17688.6156419
17718.0398286
19558.9352352
19560.4838027
17715.1541391
19558.3461486
19558.9083567
17722.2320061
17738.0147542
19559.7156488
19558.0214237
17724.525849
19561.8882238
19562.1352313
17713.4894126
17720.9546865
19562.8466939
19561.4006364
17730.2116531
19561.5979714
19562.5166114
17725.9158648
17726.2685457
19563.1070484
19560.5534186
17731.4905102
19560.5215015
19559.2250933
17720.208188
17716.5595805
19560.3775306
19559.3089375
17717.819941
19560.4206092
19558.4572085
17708.2207277
17713.1730928
19559.6065232
19559.1386153
17714.9293001
19556.8411317
19561.1519095
17748.7244188
17726.5864941
19559.4364368
19558.9735714
17724.747486
19554.3414137
19555.0000838
17744.7614492
17704.8310819
19557.3537878
17718.648888
19551.9977055
19556.0259524
19557.081344
17708.1390056
17681.3959011
19558.1943285
19554.9805817
17704.225809
19552.9633052
19547.8395513
17672.7748395
17660.2226869
19551.9925893
17693.1227302
19549.4626855
19556.1558616
19557.684167
17696.5242776
17703.0681553
19557.6505271
19556.2810781
17692.0837733
19555.9474112
19556.9445933
17689.4432093
17671.3713062
19557.4971093
19555.5956269
17684.2567608
19554.9298823
19553.7686901
17644.3228532
17643.249714
19554.5532056
19554.453229
17660.667332
19552.8636269
19555.9274901
17656.0287055
17663.0220731
19554.0443861
19554.8393672
17639.637173
19549.7833305
19546.8160635
17639.2052554
17580.2539227
19551.1485227
17615.4343318
19545.3467006
19552.0724914
19552.7022305
17630.5853923
17571.5307247
19553.7526475
19550.8053126
17610.2359533
19549.2681954
19543.3642603
17536.5524909
17536.6598912
19547.8543722
17579.3307858
19544.8538168
19547.4515486
19551.1561887
17533.6112215
17538.2452616
19548.9194495
19549.6387527
17506.1710566
19541.9017204
17500.4921542
19545.9533504
19543.0356391
19541.8726147
19541.4868041
19543.244851
19544.2985587
19555.0260923
19542.7675341
19541.8067126
19541.5642669
19542.907788
19543.3662317
19554.8898864
19536.3975691
19538.1452738
19534.4636963
19538.839721
19542.2994699
19544.8279043
19549.9639916
19528.5371291
19537.8090878
19539.0286549
19539.6735241
19540.3973493
19540.8991959
19540.4442744
19539.650737
19552.1524022
19542.189688
19540.1961444
19539.725868
19540.1206097
19540.7312127
19540.8117404
19540.6146637
19553.6883375
19544.2191317
19541.899931
19540.8212187
19540.7911175
19541.2427377
19541.4532186
19541.8703885
19555.1864913
19541.698361
19542.1208252
19543.1169013
19555.2171244
19534.4569037
19534.5026147
19537.2689774
19539.6156892
19543.5205244
19549.55817
19604.2827411
19437.6221598
19537.94016
19538.3023693
19541.7216017
19542.7025383
19541.6680675
19539.2257899
19536.2429037
19537.6699662
19541.6220744
19540.638001
19540.6545903
19540.7129914
19540.4736203
19539.6866298
19538.5864552
19548.6010076
19543.9713183
19541.8490227
19541.0950772
19541.1591684
19541.2600786
19540.7660386
19539.9167443
19553.275078
19541.6800454
19541.6669654
19541.9099389
19554.9125462
19533.4471409
19532.4542319
19535.7068835
19538.3445872
19539.6516081
19536.8992999
19532.776641
19465.2402964
19538.2872636
19536.9407911
19536.0529309
19538.7964481
19538.6581717
19532.9571694
19519.7207734
19510.1327206
19541.5630401
19540.3907562
19539.7722096
19539.563665
19538.5240052
19534.7204626
19527.2935735
19544.0411693
19547.38107
19543.224963
19540.9077495
19540.1134709
19539.5270553
19538.7352889
19536.8084142
19532.327228
19548.3631311
19541.7381676
19541.3275337
19540.6528495
19539.9783056
19538.594018
19536.3824843
19551.8131781
19540.5988676
19538.8039332
19552.5654019
19538.8170157
19538.8122933
19532.9072211
19537.7634333
19541.2859154
19542.0456967
19537.4022704
19507.1231106
19544.5013963
19541.0348654
19541.7043338
19538.6063781
19539.5979055
19541.4639816
19538.9427738
19532.1974287
19518.3220677
19558.4257237
19548.7568645
19542.7906645
19541.4953271
19540.8837404
19540.774489
19540.694691
19537.3151645
19534.2744271
19535.3070055
19548.3132775
19543.3630781
19540.776607
19540.0909108
19539.8221783
19539.2035093
19538.0596304
19537.0837757
19541.1890766
19540.4288087
19540.4485145
19540.3476516
19539.8603687
19538.8643891
19538.899825
19542.7931622
19540.5797644
19540.3385282
19544.0250344
1131.03651836
1195.25987117
1245.59296848
1354.7370105
1413.52472182
1456.39600899
1502.65400902
1555.33582098
1108.60378221
1115.23384911
1121.62702238
1186.67363643
1218.29474116
1270.73392214
1358.81880231
1413.17860428
1459.11337791
1464.49116416
1135.15754473
1166.09273371
1209.35552593
1237.76759012
1254.20452118
1290.25562385
1304.19183211
1394.43513932
1430.74573386
1413.67710629
1212.97170382
1275.94454774
1301.60359597
1312.53733622
1330.12299457
1339.90468741
1395.87268675
1414.91974358
1384.61632354
1334.13628012
1369.94252244
1347.66507495
1379.33699636
1397.32798353
1398.55517805
1397.8719871
1401.77644152
1408.61329617
1423.5193583
0.0271535055461
-0.0428017666645
-0.0667955957863
0.141782602117
1.06168322679
-0.0530758954561
-0.124535354309
-0.085076237949
-0.18216293033
0.678655001636
0.301617677576
0.136452374991
-0.0905221909248
-0.0774514238886
-0.0517825150119
1.1560405719
-0.0461966158728
-0.143196685236
-0.180751446956
0.375266569197
0.511332964998
-0.0769344182208
-0.156225206263
0.0148475267067
-0.00697675150114
-0.0774116256729
1.04507865471
-0.125521589112
-0.216259944134
0.572581546698
-0.103742663583
-0.145152079104
-0.0754331768554
-0.0439804104268
-0.0776699674193
0.0348225945825
-0.130826678969
-0.214882852832
0.773780588187
-0.0876048057202
-0.0315413998438
1.01383180361
-0.0992911691213
-0.14225184047
-0.216384796049
0.821187465469
-0.109548205029
-0.226965341803
0.957758335054
19537.4327936
19536.475018
19537.6910205
19535.631234
19536.6734556
19536.1412951
19536.9865698
19538.5362623
19538.7657736
19539.4567854
19536.8678422
19533.8975317
19537.3261884
19536.3614051
19538.2670614
19539.8431165
19539.3269904
19537.5074568
19538.3046732
19539.4961328
19539.5245357
19539.5673704
19539.4962021
19540.0515992
19538.9481346
19538.7632813
19540.1072294
19540.7409299
19534.9796446
19535.7376375
19536.2122727
19533.3424445
19534.5039632
19534.963889
19535.6679649
19535.6339171
19535.3167706
19536.5811679
19533.0688437
19533.7921968
19533.8935182
19534.6650742
19538.3336215
19539.2912418
19539.5247062
19537.8476292
19538.4900231
19539.5099191
19539.4595418
19538.1678696
19540.0362146
19543.3099295
19537.7335172
19533.29043
19539.2017367
19540.9249704
19534.562084
19535.6870755
19536.1752602
19535.1094637
19534.6997244
19537.8443447
19537.9943335
19532.7014205
19533.7760939
19534.1847371
19532.3349191
19531.4135328
19534.430842
19534.2680829
19538.8577004
19539.730013
19539.6453688
19539.2450669
19539.6589878
19540.2506802
19540.2783515
19532.6248153
19539.402323
19540.1537
19539.1484531
19536.8169164
19540.4311194
19541.5903261
19537.5186394
19539.9603483
17026.0535773
17231.0669748
19540.0558273
19540.6616117
19541.3735831
17131.0941779
17280.5090636
17277.6312638
17326.025245
19534.1577479
19540.3484533
19537.2854351
17212.1507492
16829.848315
17266.4659183
16995.2448633
19534.8685078
19535.2187342
19536.2591852
16753.719731
16705.8715252
16926.2678341
16886.1241714
19539.911515
19538.6532079
19540.6342199
16709.4898173
16729.8225933
16894.9141997
16914.7938057
19542.2800376
19541.5470699
19541.9119822
16733.3275739
16783.6184657
16909.1162493
16852.9690235
19541.0742339
19541.267401
19539.856515
16784.802683
16709.5447155
16815.8037887
16616.8919292
19525.551431
19537.221558
19527.6320237
16612.6210509
16302.7283162
16535.2828913
16312.9743987
19492.2791118
19513.1023467
19517.2950058
16466.5585552
15725.4745862
16440.4213972
16321.683588
19560.594595
19554.2811096
17732.6754103
17499.416319
17609.0651937
17484.1829829
19541.004199
19547.6920852
19543.4259968
17392.4586948
17241.7764344
17400.9798308
17180.5074604
19541.7818384
19541.7671297
19541.6814321
17260.4929272
17316.2827662
17154.9030204
17162.0922324
19540.2653315
19541.8030368
19541.5124584
17277.0547248
17019.1478315
17160.9837417
17074.8375591
19538.4116119
19541.361863
19541.215294
16935.7740831
16903.9771752
17025.4093432
16977.841904
19540.9176283
19541.4859931
19541.8505572
16927.2891061
16942.7854059
16995.5333579
17027.4577163
19540.7810193
19541.6387924
19540.2577777
16904.0413222
16830.3303997
16991.7295803
16826.6155153
19536.1506223
19537.8633842
19535.5098536
16792.3507819
16618.3362676
16751.3814404
16583.9620646
19525.9365037
19533.1514567
19530.3122596
16543.6316695
16371.919182
16562.1014195
16559.4321001
19537.1101605
19528.1415035
19549.5404985
16488.1312191
16426.6339187
16684.4944422
16555.7172009
19553.7787939
19556.3698789
19552.5898692
17575.2975931
17436.1340377
17440.7850208
17299.2121903
19544.7211374
19548.6316093
19545.2482228
17351.3172407
17148.2799981
17227.2616204
17058.7073332
19542.0022088
19543.2153288
19541.9140313
17125.4633679
17128.3041419
17027.0140545
16988.619535
19541.1023365
19540.9490539
19540.5014433
17120.7855022
17053.2484084
16968.3085601
16914.6199649
19540.7691519
19540.4251248
19540.4322298
17023.3630945
16955.2381237
16918.3086141
16927.4805735
19540.8860944
19540.4299358
19540.3608378
16953.4586354
17016.3379328
16908.6634164
16898.9023555
19539.3304241
19539.9411942
19539.0259747
17030.1081902
16825.599078
16921.0851016
16761.3561055
19535.502323
19537.6556651
19536.3362468
16736.0095934
16617.3980098
16701.8255472
16659.7438563
19533.8846311
19535.8339736
19536.5528114
16605.3295414
16600.4800065
16677.7861443
16692.3872101
19553.829095
19539.136027
19556.1075862
16721.9513162
16565.8435645
16790.1389417
16560.8460164
17415.1649873
17275.4448618
19545.4427435
19545.1509739
17205.6192655
17038.6721334
16997.4794579
19541.9318248
19543.0621728
19541.726224
17009.3732377
16950.0562851
16960.5096354
16865.6033084
19540.1884308
19540.5692785
19540.0304916
16931.3945883
16896.07468
16855.0570606
16840.8455708
19540.0202298
19539.9523631
19539.8927186
16905.1698355
16899.080391
16848.4601775
16846.9640615
19539.5515927
19539.6428418
19539.5128369
16876.4758845
16855.0162031
16832.6052836
16810.8142374
19538.7233572
19539.2983154
19538.9787475
16857.6217241
16774.472529
16808.8871076
16773.7556804
19537.2965332
19538.6095539
19538.2290562
16730.6573215
16684.706165
16750.0846565
16711.0386672
19538.1387768
19538.0708671
19539.1739187
16681.3657018
16694.7448234
16706.2241542
16697.2407561
19556.6325938
19541.9821556
19557.1573743
16790.0289096
16561.2515255
16777.6904878
16530.8171677
19540.3864132
19540.6465809
16840.8265595
16832.648669
16826.955903
19540.5135607
19541.304904
19541.8349886
16835.7638474
16834.2554558
16839.0454948
16879.9442184
19540.1655507
19541.9307778
19541.5929397
16838.7409061
16831.6909777
16895.1398057
16855.4696643
19539.3617564
19540.9132357
19540.2033832
16816.8349904
16763.7355458
16832.4474432
16768.5635437
19538.6907343
19539.6471386
19539.3379197
16743.6577222
16724.7195467
16749.5055666
16735.1216301
19540.0331963
19539.5507869
19540.7817077
16720.2442026
16693.8240965
16732.6602791
16689.6438179
19557.5400137
19543.3999088
19557.4994758
16775.6421709
16526.6831494
16762.2572378
16545.5805572
19541.2947122
16771.2499291
19540.1553478
16752.1578624
16724.803513
19541.5300095
16721.9393733
16678.5023149
19557.1812588
16753.8404917
16563.2437506
4.36972559704
9.28834095466
2.16108827181
3.69657978274
1167.16814397
1122.56068523
8.73471768109
5.90432688493
3.59939021745
2.68577567345
1153.63088794
1100.35898442
1132.44965378
2.43772536698
2.90249842876
1.25959289704
1.51940836632
1224.98566954
1178.29098782
1200.63900387
7.57895934012
20.2038432381
6.37538868975
18.9192365249
1291.84272225
1211.4833089
1251.81390274
30.2806750818
28.1677175374
27.6162130196
26.8265397676
1380.26143286
1312.35997145
1339.18732966
12.7666013556
7.7051633595
14.1136782347
8.93174270537
1435.16178655
1375.74193747
1401.72886578
4.52649130844
3.25799541649
4.77424326115
3.47429338797
1478.71962359
1429.39890047
1458.35889103
4.33046409272
6.09544424345
4.65723021344
6.23009413242
1526.9830755
1478.47305714
1503.67711814
7.62971882369
9.74917944184
7.4430093559
8.46220705109
1632.05350136
1494.36821453
1579.06132992
12.4815317895
24.1699460711
10.5087833833
16.7319282799
1111.88299013
1113.55363975
1121.46932786
3.40306990804
6.1075246658
4.57421496234
7.22558282697
1115.80328629
1135.33991249
1145.94714929
5.43019940604
3.48508011183
2.92659662024
3.01968750501
1145.65740442
1164.09789105
1188.35651702
1.47806630226
1.37136316377
1.84906066123
2.24122211443
1207.61173306
1209.61209334
1218.94768296
3.49110921947
8.01520766323
3.71037048772
6.04191856148
1238.00306497
1229.01790116
1245.78888255
14.3485001414
22.3628079978
8.6516740161
13.5553277219
1317.4149414
1263.06562601
1296.55072566
27.9526597422
14.7729249079
21.3068067806
15.7330341906
1385.75619576
1334.86190829
1370.97315974
5.67864785543
4.13154924348
6.66410218981
5.97856783868
1440.94653723
1400.90581261
1425.23088516
5.55708520557
6.99364669535
8.00352722726
7.98806807192
1480.02729095
1442.41970053
1455.26641169
7.92097424523
6.81227202672
7.03293114251
4.62459795798
1570.84963578
1434.55171054
1534.2912227
6.9597403206
11.0140999632
4.68232569203
11.0056215862
1145.10610555
1150.71309754
1162.8781326
4.54602133513
7.64265994641
5.01926841323
11.1732940801
1185.72673813
1193.87544779
1222.0957562
3.30802213154
4.5423654685
5.75804002254
7.05169728542
1226.35072787
1249.28627756
1265.41161068
3.76730031314
3.66699491613
6.59658009234
7.59289296784
1244.97871424
1273.25473901
1279.1638484
5.39420325272
6.67110382434
8.91124304518
9.29419871506
1271.21601115
1285.64863989
1295.39915369
7.47380715018
8.28938037696
9.0807607011
9.02713238154
1293.26411772
1304.98821167
1306.85832763
9.00620772709
10.2933500685
9.44397164927
13.1908195859
1349.82457732
1303.86609776
1339.67712238
13.6991196292
13.232578884
24.7900291741
25.922723283
1420.25359295
1395.49756435
1417.9423872
9.69677066932
7.82909148118
9.94095509695
6.18604231149
1435.60576439
1422.73397156
1422.20657491
6.34461036056
4.66163224629
5.84857212087
4.63742150786
1498.31892492
1394.1076238
1474.1143214
4.96149029669
13.2245809427
4.96661895842
16.0145114463
1246.25082987
1259.1448329
6.61311557391
7.96780831255
9.27080085827
1292.68385065
1290.62960121
1306.64089592
8.04899405133
9.74899470086
9.7932676036
11.176525259
1308.25955698
1318.35664544
1331.95093025
10.5973917839
10.3696251892
11.34106493
10.5446783541
1319.53472299
1340.63736457
1342.86067792
10.3058037754
11.3166572827
10.4466258722
13.5835612084
1332.68681088
1349.8181864
1353.35721892
10.9936258061
13.4815338951
14.4351387968
12.7838074161
1361.32978912
1357.33742645
1375.40578143
16.6543000157
16.8300948776
14.6057835132
13.2734260931
1412.06638016
1398.56297038
1407.22807274
10.1002858218
6.96879182447
8.6264700194
6.16022158377
1411.90790315
1406.35342647
1407.28420941
5.70053220094
3.71304447864
4.23934666463
3.33139037043
1466.08723421
1387.08382219
1472.09068028
4.82209227709
18.5470020741
4.82376864895
20.4669422815
1354.19594013
1364.69989311
10.112015116
8.51043053681
10.5401931932
8.07438042302
1361.86082393
1378.71330475
1369.31742623
8.16330635829
14.662381729
7.16951036147
12.3069670374
1363.08521241
1352.25171949
1371.19055728
30.5606350757
14.9336200526
25.9491963654
11.6290753604
1390.37209142
1387.4396383
1393.00890453
8.1281924333
7.82780925401
6.27629159153
6.06040394973
1400.31492993
1397.28528606
1399.63219315
6.42562364222
5.63848747601
5.87454329012
5.88530202255
1408.73323076
1400.5436742
1415.49269107
4.82906068103
4.11637743484
5.17162299411
4.86111018586
1484.9192301
1410.68526229
1504.08118829
5.65010273048
21.2008900729
6.85035651894
22.0291278206
1394.74250816
5.57687216054
1405.55230278
5.55855032933
5.81380585245
5.35375776689
5.22569272216
1429.3053444
5.23199722443
5.13646146018
4.49703451798
4.44899751978
1516.68035687
7.51865809819
23.2337851788
6.8539611157
24.7656239558
19512.1052704
19505.8234882
16943.7327967
17112.2001213
19510.8568887
17048.8063411
19506.2440329
19515.1126666
19517.5448115
17176.5494636
17215.1965614
19515.5451014
19518.7532673
17128.8525639
19514.9939101
19507.4505938
17236.9428655
17214.8763579
19512.2630783
17310.1810541
19510.6402364
19518.4540867
19518.1840135
17281.368511
17314.7036102
19521.0311261
17323.2706577
19514.6773702
19520.9572866
19518.659746
17257.9741693
17332.4357263
19517.7460002
19521.3930141
17332.203758
19524.4970409
19524.7459318
17328.2840189
17337.8375329
19525.0886585
19524.3620312
17337.5616066
19517.9907243
19519.7523541
17106.5577126
17241.2174128
19520.5850207
17141.2679186
19516.9148971
19514.633754
19508.7643518
16968.6884259
16883.4353498
19510.8548545
17010.8476062
19513.0114769
19521.5240967
19524.0875482
17267.2449729
17192.8269627
19524.0393701
19521.9367713
17175.6242421
19518.3324752
19516.7692346
16945.9446061
17092.9558917
19514.9962811
19519.370274
17060.8801481
19511.7930042
19507.1215138
16706.404402
16815.5870878
19509.7773857
16775.1942877
19509.1362055
19514.579138
19514.725152
16705.0684813
16784.3546304
19517.0649292
16773.6413364
19512.5679783
19515.7941034
19515.6314854
16875.7869104
16875.4996539
19513.9794154
19517.3861619
16829.056617
19518.6354903
19522.2558877
16836.0692918
16871.4700245
19520.7362793
19520.2006613
16826.2961171
19518.8865984
19515.8997808
16720.3681561
16790.1249356
19518.3087349
16803.5045273
19515.8646873
19518.3060127
19513.6358804
16732.2686574
16808.2658709
19517.7095882
16812.8356042
19514.920556
19522.2689196
19523.7223949
16840.5491975
16904.6416643
19521.8961712
19524.5123152
16851.7411855
19522.1366006
19524.3082095
16851.520858
16914.8769139
19521.9191501
19524.5844301
16857.1775325
19515.3964432
19512.0308896
16747.7136173
16805.5189975
19516.6288379
16809.4063532
19510.8108292
19513.5796158
19507.4553762
16764.0241371
16815.8688524
19511.0985289
16814.6697437
19509.6353156
19519.3436166
19523.1966477
16837.1881701
16888.3898527
19521.0147899
19521.3196344
16826.2108334
19516.8374887
19514.2519001
16822.2296612
16869.9261089
19513.2140988
19518.3250802
16825.0006839
19502.9288311
19504.2170876
16784.9921811
16806.7884449
19507.1830761
16795.4726432
19502.0058266
19499.8167989
19498.2344581
16758.668695
16670.3345268
19496.9914227
16745.303424
19499.9454253
19502.5778277
19508.4739088
16810.1279734
16770.2712736
19508.0031213
19501.2209213
16792.8976801
19498.2031951
19488.9635402
16657.4731757
16696.139142
19494.5326594
19493.9184127
16731.3074147
19490.038551
19495.1250204
16501.2234519
16569.8292609
19492.4961953
16464.9530284
19493.2636543
19488.0545278
19488.8663087
16403.9923239
16275.2211104
19485.1723966
16373.5858218
19492.2100143
19488.2304907
19484.0862751
16567.6412124
16460.9197942
19490.1953364
19482.7691226
16476.2051123
19486.8064413
19481.1455152
16302.9833155
16381.2545591
19484.5757299
19481.502446
16394.7996629
19450.3561317
19476.7201646
16375.2270451
16371.3782634
19474.7222824
16369.0544807
19443.8227774
19383.7594769
19294.5956855
15774.9883316
16104.2804031
16076.5883161
19354.4394128
19279.2674589
19456.0914265
19475.7481368
16425.8834502
16418.6259325
19476.4602091
19460.3031042
16380.4253012
19389.3146981
19442.219501
16102.9272815
15763.7260383
19408.8646202
15669.5454614
19412.9717267
19546.4869869
19552.0516901
17713.2645294
17686.329948
19547.9471751
17655.9697394
19549.7691857
19542.2654258
19534.879074
17621.6573545
17509.7667415
19541.9333321
19536.662984
17587.4012527
19543.3225387
19543.8891928
17650.745848
17577.0302003
19540.0136371
17627.4312439
19546.6431998
19539.2350168
19531.6637227
17520.0915863
17534.7142255
19534.5415754
19536.2971055
17579.4532966
19524.8532698
19527.8581695
17296.9255507
17427.7102752
19521.9333951
19530.5425724
17348.5250762
19519.8656027
19515.7030809
17251.093111
17244.3963396
19517.1220022
19515.8201831
17291.1945998
19522.9467123
19526.0621746
17431.1608565
17309.2571357
19528.9446154
19519.8360599
17339.9306126
19517.035806
19510.9275521
17220.6439761
17233.6884805
19513.5430703
19513.4037478
17267.5638773
19515.9918604
19516.4630537
17292.2960617
17244.4806871
19518.6310672
19515.039913
17248.4578865
19517.257215
19521.753036
17318.5851378
17263.2846656
19521.1791211
19518.3213814
17260.4751328
19514.6282156
19510.8970254
17203.4468691
17145.3942304
19513.4488073
19512.5244187
17198.7707462
19516.5564433
19516.20248
17207.7752404
17150.4216129
19517.5139285
19514.5535824
17204.3088657
19518.0123636
19521.1759835
17212.306243
17238.087277
19519.1471732
19518.6237456
17202.216125
19516.675521
19513.2951042
17124.7793056
17059.5336565
19516.4398513
19514.0555416
17135.58004
19516.53462
19517.1839665
17197.9909598
17150.6834649
19517.3355964
19516.4307996
17180.4536982
19515.3361487
19513.7820633
17081.7819895
17116.1796756
19513.3403299
19515.2828505
17142.7417148
19512.3340372
19510.9620996
16876.417193
16981.6878873
19511.679774
19511.9434689
16917.8813173
19514.3463393
19516.7619602
16887.1289252
16940.5047717
19514.3342173
19516.942161
16925.4934787
19511.3218552
19512.5002002
17015.0023166
16990.1522373
19511.4860511
19512.4682637
16957.5148998
19512.5750746
19515.2151762
16953.1907447
16976.3087709
19514.85608
19513.3172591
16940.7971873
19520.0644347
19518.4383407
16951.8433719
16962.9803276
19519.8385468
19518.7270964
16985.5259737
19520.2765187
19519.0152085
16962.9994426
16992.8219121
19520.0862508
19519.0274052
17003.1501385
19517.8723467
19516.5548878
16976.6747606
17023.6775855
19516.6627118
19517.4076279
17001.3028062
19518.1766628
19514.9197528
17022.9595245
17033.2222348
19516.3093719
19516.8082276
17031.0034609
19511.1693326
19516.1423085
16854.5047389
16954.6772096
19511.889292
19515.6481089
16899.0102861
19505.4991725
19500.5980289
16843.6877957
16845.2140519
19506.8161842
19498.2132173
16872.7778444
19508.2436578
19512.3669603
16974.8265383
16949.9288199
19512.62406
19508.8730005
16912.3226056
19503.649985
19497.4628319
16824.6019602
16897.7097121
19497.7793171
19504.1006428
16866.9832702
19481.9197683
19492.8021325
16748.7921564
16794.8720079
19485.2293224
19489.7197148
16732.4597614
19475.186036
19476.0779549
16683.7322499
16593.1480739
19479.0856946
19470.9416987
16663.0507798
19485.1575757
19490.9117097
16773.4743044
16681.112484
19491.1863711
19485.4677291
16718.8573582
19480.0009896
19479.6533909
16604.0104994
16627.8639599
19477.3880406
19480.9442634
16660.3141912
19467.1232747
19472.9719113
16474.910992
16526.826339
19471.8041459
19468.1107275
16470.7799822
19466.5297043
19469.3547678
16418.7611386
16419.299621
19470.4693154
19466.9143909
16436.0078126
19475.5888331
19478.9337837
16555.8640545
16550.522073
19475.7974079
19480.2048956
16515.4487684
19476.4629135
19485.3707898
16499.1202895
16551.3890847
19478.8945173
19482.0118242
16493.4012443
19455.6911719
19465.7891337
16472.9417067
16537.2721294
19454.0016738
19464.8935971
16532.5767033
19426.1878888
19457.0433207
15832.9892792
16479.5866676
19416.8683539
15937.7223687
19467.6697765
19469.776728
19484.2806447
16616.694604
16674.3958129
19477.8234485
19476.048212
16606.4236481
19444.8659683
19491.6373353
16526.8214075
16066.2466777
19451.6036857
16003.4899357
19484.884668
19535.0749914
19542.0103209
17535.9194905
17538.8713723
19536.843736
17488.8867316
19540.4217652
19530.0908306
19527.1079501
17491.149526
17382.7097403
19532.0553869
19524.9558932
17442.736001
19535.0617493
19538.7013939
17488.3535087
17391.5047008
19534.1501493
17438.1909091
19540.0085037
19530.6112755
19526.0425502
17343.4316103
17351.5008236
19526.0391076
19530.2023161
17396.1516558
19513.9086831
19521.7142544
17263.8551053
17299.4257712
19516.2154592
19519.3756941
17212.1164771
19508.4133597
19509.1279008
17195.2540164
17104.1806281
19510.9140801
19506.9417126
17150.6998342
19515.8720894
19521.3501065
17264.8355994
17150.9561504
19521.0151651
19516.5611665
17184.0213322
19510.4571915
19508.2362201
17085.4848474
17098.7370385
19507.627693
19511.418626
17126.1185181
19508.844432
19509.1746435
17130.5149957
17077.1332062
19510.9516938
19507.0292934
17087.2537593
19511.629543
19516.2437557
17128.130141
17090.1766603
19513.5705077
19514.5943526
17087.1712509
19508.1823888
19507.6566934
17057.6252061
17024.8730502
19507.234451
19508.0890833
17055.038713
19509.9690506
19511.0964404
17031.0231905
17009.8435919
19512.3667832
19509.2135947
17043.1118903
19517.8998578
19518.9241653
17105.0353666
17079.7656556
19518.8159773
19517.498344
17057.8053692
19517.0666791
19516.066278
17082.0057481
17011.3494383
19517.7620434
19515.6358497
17034.4863853
19514.6194269
19512.8604907
17016.1268391
16941.328676
19514.7478842
19512.4101414
16995.7517372
19513.8362015
19510.6820742
16970.7187257
16924.8976102
19512.7054527
19511.7362399