/*--------------------------------*- C++ -*----------------------------------*\
| =========                 |                                                 |
| \\      /  F ield         | OpenFOAM: The Open Source CFD Toolbox           |
|  \\    /   O peration     | Version:  v1906                                 |
|   \\  /    A nd           | Web:      www.OpenFOAM.com                      |
|    \\/     M anipulation  |                                                 |
\*---------------------------------------------------------------------------*/
FoamFile
{
    version     2.0;
    format      ascii;
    class       surfaceScalarField;
    location    "5.3";
    object      phi;
}
// * * * * * * * * * * * * * * * * * * * * * * * * * * * * * * * * * * * * * //

dimensions      [0 3 -1 0 0 0 0];
oriented        oriented;


internalField   nonuniform List<scalar> 
92311
(
0.202572715736
-0.000180828507529
-8.68986781427e-05
-0.202348894149
4.39058271255e-05
-0.000270198234218
0.202683285064
0.000593422358535
-0.000433687179847
0.202501714828
-0.000344659584147
-8.47792070561e-05
-0.202283382065
3.04024234937e-05
-0.000612331648176
0.202715929486
0.000599535052691
-0.000471481604266
0.202268664059
-0.000130102685629
-0.000153652942904
-1.17129263882e-05
-0.202097962762
-1.95248085186e-05
-8.85186769921e-05
-0.000111787105948
-0.000255917725401
-0.00037279786487
-0.000356513517153
0.202746753067
0.000641645639344
-0.000519911603727
-0.000226954476035
0.0505114962652
-3.84919792342e-05
-3.5294912609e-05
-3.79848847144e-05
-3.41561303776e-05
-3.4118143964e-05
-0.0505311709578
6.96036661962e-05
-0.050520852559
0.0505560936462
-9.17027048555e-05
-7.11856204394e-05
-7.11420837895e-05
-8.74107334291e-05
0.000131402989093
-0.000101109545099
9.50649947401e-06
0.0214384350484
1.27072732534e-05
1.06128671828e-05
1.2737082275e-05
-0.00106832352939
-0.0258825843882
0.00621912560879
-0.000752098671687
0.00175803661149
0.00455963481603
0.00496955202931
-0.00771061424697
0.000148548232639
0.000156933000812
0.000133782931559
0.000137711204896
-0.00415348275406
-0.00405750060546
-0.00781313417741
-0.00724420140861
-0.0083621605448
0.0014335365772
0.00602700785518
0.00402792768016
-0.00774047484476
-4.78550312454e-05
-5.00666501332e-05
-5.08135963319e-05
-4.71444700942e-05
5.50930003544e-05
-2.22333434885e-05
3.97981040346e-05
0.0123949452041
9.49238121633e-06
-9.96166648446e-06
-0.0124247545166
0.0123189939554
-3.98855471985e-05
5.65936894261e-05
-0.0123438208037
1.42180571749e-05
-6.10835579147e-06
-0.000180730857973
-0.000136449157002
0.0506596894615
-0.000130131967813
-0.000112115202273
-0.000107602479741
0.00019060284853
-0.000147786481599
0.050591988733
-0.000147294764524
-0.000116607667991
-0.00010743753221
-0.0504667377957
-0.000143319117929
-7.35955821562e-05
7.12420458561e-05
0.0123118435981
8.24007872071e-06
1.29949941789e-06
-6.36587089598e-05
0.0126462221061
5.76412376977e-05
-0.000151625263203
-0.0126249966035
0.0126395376671
-5.8230054828e-05
-0.000178620075415
-0.0126140263613
-0.000137542589018
0.202845504341
-0.000865768075135
0.000722627948741
-0.202564821715
0.202717677417
-0.000299420208549
0.00109720250874
-0.000831813114836
-0.000171640390484
0.202589296301
0.00135033919164
-0.00105002251092
-0.000193296494953
0.202825915808
-0.000901856145319
0.00072602296078
-0.202594239946
0.202851957613
-0.000698942753958
0.00109679173405
-0.0008331067387
-0.0004001035315
0.202734729641
0.00138690881935
-0.00104103028283
-8.85320403826e-05
-4.80917220819e-05
-3.41053092288e-05
-0.000720404928595
0.202629550579
0.000649585231429
-0.202505430015
-7.58172061132e-05
-0.000368079333415
-0.000394327587291
-0.000356989805646
-0.000381672642622
0.20325568657
0.00129758027333
-0.00100453416705
0.0506462160414
-3.64349527296e-05
-2.61616184391e-05
-3.07495151284e-05
-3.40655323444e-05
-0.00016972873312
-0.0506152910731
0.0001776872375
0.0508404664304
-0.000230572611119
-0.000131070685061
-0.000126035154489
-0.000148150246796
-0.000142453398715
0.000229572276346
0.00626032230862
0.00430633659777
-0.00317158236577
0.000168320206265
0.000169606007213
0.000166965210363
0.000169412007651
-0.00631087078716
-0.00961634391039
-0.00752023787446
-0.00854272755369
0.00233363857638
0.0115976203071
-0.00569547139271
0.00180927507815
-0.00876077477862
0.00108904338225
0.00156787712009
0.00342875062268
0.00312255420457
0.0234053385179
-0.00283779457689
0.0452445511437
0.000103029635268
-3.32670808495e-05
-2.21140628641e-05
-2.84721135067e-05
-2.58631862957e-05
0.0506904875852
-8.56695894007e-05
-2.69348178695e-05
-1.79896096178e-05
-2.8540077606e-05
-1.89047517053e-05
0.0506102528672
0.000124884580349
-0.0505738670948
1.38129725452e-06
3.00133891581e-05
0.0125048142788
5.25532819915e-05
-7.35811206404e-05
-0.0125151170826
1.7017593576e-05
2.70374280829e-05
-0.0124620495672
2.01437903755e-05
-3.63745697208e-05
0.012434190039
-3.23603072615e-05
0.0126422686653
-2.74987358769e-05
3.1956391613e-05
-0.0126413119337
-0.000273442715575
-0.000132640525138
-0.000128011058297
-0.000127924897194
-0.000132675539193
0.0509534886401
0.000287422611403
0.0507993335574
-0.000140292981547
-0.000161682743709
-0.000141135965093
-0.00015419481293
-0.000197481306902
-0.000141005898239
-0.000136285592366
-0.000134056347555
-0.000128842659438
0.0509266428641
-0.00024240538301
-7.28545784459e-05
6.44702904882e-05
-0.000152521836664
0.012676183142
-0.000147608207805
0.000146892241352
-0.0123194973469
-1.90211004163e-05
0.0123192147462
1.99364067176e-05
-7.06673993534e-05
-0.000175868051483
0.0126730720687
-0.0127018869596
-0.000184702406521
0.0127389191214
7.16911517129e-05
-6.48615979109e-05
0.014697775817
2.95792226944e-05
3.86472727557e-05
2.47794102771e-05
-0.000848601920773
0.000275763603604
0.00718098358494
0.00551729113514
0.000168369141096
0.000188209650166
0.00015058628028
0.000146735878157
0.00191006931356
0.00531435676176
-0.00883537404056
-0.00392798052041
-0.00260679666969
-0.00195219276105
0.00619602291334
-0.00272822995628
-0.00351749592857
4.41259290821e-05
0.0064460779448
9.62806491051e-05
7.68412114038e-05
0.00010198424622
-0.00224019164453
0.00243348970062
0.000730928016323
-0.00800615405093
0.00263388452454
1.4118810699e-05
0.012622619326
-5.64013449972e-06
-0.0126297840633
-0.0126132414736
-4.13928422189e-05
7.7445549381e-07
0.012609731268
8.8244416721e-06
1.36475790949e-05
3.99175492587e-05
0.0123648150094
-1.07642990118e-05
4.29531188804e-05
0.0123898990035
-0.012421696422
8.88874975219e-06
-0.012618051371
2.38757258526e-05
0.0123611061819
1.37865521476e-05
0.0126200687524
9.04993224139e-06
0.0125983529177
-4.52377125066e-05
6.94375400843e-06
1.82198026285e-06
-2.02701364916e-05
-0.0126095913338
0.0126100959387
2.62988499154e-05
1.58462764942e-05
4.53320093731e-05
-1.06054527627e-05
5.72624594029e-05
-0.0123369000127
0.0123084632077
2.39745584965e-05
0.0125997462144
-1.52801657482e-05
1.95067502295e-05
1.56111648939e-05
-0.0125968418828
-0.000107892845273
4.14765071702e-05
0.0126124767063
-4.09248603289e-05
-3.2102914177e-05
0.0126080057644
3.42908919717e-05
5.39681789542e-06
9.96414765752e-05
0.0122951930867
7.8218279708e-06
7.31302190195e-05
0.0123019229206
1.84834729005e-05
-2.70561478607e-05
0.012285287024
1.61688273099e-05
0.012621851586
3.99770764761e-05
-0.000144534111966
-0.0126333420074
0.0126530170282
5.24852610387e-05
-1.10686679119e-05
-0.0123052704316
0.0123019414851
1.84666914807e-05
-0.0122956579615
-3.89786068735e-06
0.0122939192264
-0.00012079919776
5.21822945059e-05
-5.57636091431e-05
-6.02341965919e-06
0.000113787436599
1.6096310145e-05
6.53731784624e-07
4.70796340448e-05
-0.000186891815872
-0.0125978626625
0.012628434626
-4.9152079631e-05
-1.14853854109e-05
-0.0122846860466
0.0122821441077
-0.0122735179104
0.012275356281
-1.2023239901e-05
-4.65727626384e-05
-0.000142001895561
-0.012597698107
0.000135439175219
5.44518652925e-06
-0.012257624722
-6.0687708375e-06
-0.0125790707672
-3.70065975538e-05
-0.012273752233
0.00647215751918
-0.0049883290338
7.37867655548e-06
-3.32968580313e-06
-1.41038403939e-06
8.16967537015e-06
0.0260124540621
-0.0295636337133
0.00205629511124
-0.00482861064196
0.00889198008605
0.00183650713406
-0.0090512266963
0.0277457904112
0.00413224013207
-2.08973557797e-06
8.29874103153e-06
6.94696981618e-06
-0.00909383197208
0.00692265425789
-0.0297189292106
0.00621056431009
-9.98553269854e-06
-1.16499879057e-05
-3.13668696689e-06
0.0236962000353
-0.00710889673659
0.00624202769424
-0.00650480994666
-0.00802018414951
0.00488917586927
-0.00544250544839
0.00451718711388
0.00489161462697
-0.00351998743753
0.000182538362418
0.000205984907816
0.00020905630579
0.000178392965172
0.00602338749535
-0.00542964961695
-0.00285619108049
0.0116747697722
-0.00394349277094
0.000870658138737
0.00381621173748
-0.00611879119886
0.000187146091865
0.000175441627011
0.000159678855172
0.00017334916376
-0.00755682607989
0.00564237786752
-0.00613863682395
-0.00196945759633
0.012500198758
0.00391817176398
0.000148948277789
0.000151645762826
0.00015937889111
-0.00707069890974
-0.00674493306644
-0.002827107153
-0.000220653590324
-2.74672635462e-05
-0.012653995073
-4.36997398609e-05
0.012656412054
3.23115515457e-05
0.0126579233646
3.27852196961e-05
-3.20075636398e-05
-0.0126548522097
3.70543200078e-05
4.24549803968e-05
0.0124865507253
-6.32655886889e-05
4.2638430693e-05
0.012492481582
-0.0125031419873
2.88743337311e-05
0.0126612098059
-2.45479858042e-05
-0.0126496969587
3.69253888966e-05
0.0124768592765
2.13167291306e-05
-2.15420722249e-05
0.0126609117872
-4.01953525737e-05
2.39126265716e-05
-0.0126656958667
1.57365979016e-05
-1.35436226304e-05
0.0126683511125
3.59678373572e-05
2.94075936629e-05
-5.08812445076e-05
2.64423995395e-05
-0.012450879906
6.19693058728e-06
0.0124267556708
-1.85721120866e-05
1.48749598554e-05
0.012662298149
1.18702842636e-05
0.0124429689531
-9.09228605666e-06
6.88362324629e-06
-0.0124657186652
1.96569228895e-05
-7.77233076076e-06
0.0124188187273
8.9836419632e-06
-1.68752988431e-05
0.012641568125
1.91732247807e-05
0.0126525257709
-3.35332083066e-05
-0.0126511848639
2.11362362019e-05
-0.0124487345316
0.0124245515729
0.0126526491506
-0.0124713323151
-0.000148817552548
0.0126829360766
5.74853189494e-05
-1.63671098419e-05
0.0123155797349
2.2268979713e-05
0.0123088171406
-1.4064646208e-05
6.91133748792e-05
-0.000167564369256
0.0127036544565
-7.71546863971e-05
0.000161973012055
-1.7887430726e-05
0.0123192973962
1.91929404796e-05
0.012708710107
6.30515310097e-05
0.012311252549
-1.84896610316e-05
7.16059209182e-05
0.0127346682519
-0.000158356228041
-7.68044872631e-05
-0.0127361840805
-7.18257442824e-05
0.0127565693087
7.04113126876e-05
0.00014967341589
-1.96309251142e-05
1.89039737034e-05
0.000150750222834
-0.012313903632
-1.93058627183e-05
0.0123152041606
6.60524560184e-05
-7.4983602721e-05
0.0127561029815
-2.12010672171e-05
-0.0126689934394
-0.00020230440811
7.38547729922e-05
-6.60415188245e-05
-0.000190049799839
-6.18888044446e-05
-2.53195660069e-05
0.012300196407
0.0122932266969
-2.7234566875e-05
3.0128357826e-05
0.0123000134803
-3.02147621431e-05
-0.000187812324412
0.0127037177072
0.0123024438468
0.0123067811329
2.69235802485e-05
-3.06605523471e-05
0.000166180145632
2.32778768184e-05
0.0123153588998
-2.17971619621e-05
6.74025909977e-05
0.0127630215786
-6.12863722308e-05
0.0127377442494
-0.000172927692619
0.000158916764988
-0.0123085788362
0.0123134238007
0.0127603882711
-0.000287622841239
-0.000238501681332
-7.473316354e-05
0.00147418317794
0.203204443915
-0.000154120745152
-0.00106823402054
-0.000281903154392
-7.89288871499e-05
-0.00010081671586
-7.90074556505e-05
-0.000103477932771
0.000297966124139
0.0510119976637
0.000113534353981
0.00537594692814
0.00257340351456
7.54575084282e-05
0.000111654856879
7.24875446265e-05
-0.00616847180859
-0.00922430271306
0.00706297666202
0.00754982326832
0.0106819619061
0.0374887666141
0.0203570145389
0.0102394034114
0.0607873822518
-1.30292562207e-05
-2.54914146207e-05
-2.42610615137e-05
-1.64026726558e-05
9.24964277444e-05
-2.6554549299e-05
0.0505893334876
-4.14630266432e-06
2.22155297911e-05
-1.4944366914e-06
0.012392339249
0.0509815593972
-6.47365376992e-05
-0.000100995301925
-9.41674200672e-05
-6.89159333864e-05
-0.000246709970677
0.0509223317851
-3.91421132743e-05
1.24958719311e-05
1.09131469758e-05
-4.28713710836e-05
0.000314128228683
-0.000271410052051
0.00012654809733
0.0123016079388
-1.53394753826e-05
1.99160938745e-05
-0.000116964560435
0.000127344489723
1.53070836976e-05
0.0123026128846
-1.27385403854e-05
0.0122162235335
5.42879319281e-05
-2.1752546224e-05
-1.20081870636e-05
-0.0122506475198
1.34939357877e-05
0.0508000520417
4.90992885751e-05
3.18500630089e-05
3.06147984048e-05
5.6103837017e-05
-8.13299524231e-05
0.000324165241785
-0.000288471051159
5.30788391698e-05
6.46953538447e-05
6.29223065631e-05
5.84101178602e-05
-0.000136366965215
0.000348875541339
0.0506655005965
-0.000317162522571
8.4915084486e-05
-5.03407099325e-05
-1.55390522967e-05
0.0121821928997
1.47649088749e-05
9.98403010123e-05
-8.48413653687e-05
-3.59499616931e-05
-0.0121446269881
0.0121210817429
4.45053480471e-05
-3.51027622381e-06
2.08954778125e-06
-8.58767096934e-06
-0.00282752577662
0.0212008675938
0.00657549283908
-0.00983707362888
0.00202018958977
0.000110412732403
6.24265717456e-05
6.25689004231e-05
0.00528380107569
-0.000345930263256
-0.0101408488617
-4.67008069702e-05
-1.1787530692e-05
-1.7184816028e-06
-0.00545833941776
0.00622161297671
0.00396195788891
0.00466525023464
-0.00181312373755
-0.00122581737605
0.0127853932195
-0.00244508324721
0.000364065903517
0.0112062841207
-0.00686858687173
-6.85751831495e-05
-0.000103766199559
-7.38692752412e-05
-0.00591082116702
-0.00463300647825
0.00760223539625
-8.50999484621e-05
-9.64971658104e-05
-7.8993611319e-05
-0.00685524895929
-0.00472127206297
-0.00389384506865
0.00896191829312
-0.0126459141098
-5.86707077198e-06
-1.14658385402e-05
8.6990339663e-06
0.0126415064949
-3.00024169903e-06
0.0126355772669
1.70624126816e-05
0.0123979861169
4.47019620162e-06
2.1429999632e-06
1.45771804851e-05
0.0123669337514
-3.6136005294e-06
1.11350114122e-05
0.0123745070685
0.0126311666209
7.08890511038e-05
-0.0127780784375
-7.23341831718e-05
-7.12889573672e-05
0.0127718798374
0.0127790346923
-7.21511088197e-05
7.55117964398e-05
7.86649652959e-05
-1.44784135999e-05
1.97584575753e-05
0.0122931952076
0.000125613454866
0.0122995375818
-1.35690154306e-05
7.45009251194e-05
0.0127751718219
-7.20124986578e-05
-9.28980685288e-06
0.0122944619457
-0.0127808026194
-6.44363846718e-05
-6.07502472738e-05
0.0127699831832
6.2243191931e-05
0.012782380959
-5.52139525205e-05
0.000124443027734
0.0123011342032
7.36031369829e-06
6.26862163089e-05
0.0122999679557
-5.28274227056e-06
0.0122971046805
0.0127688652494
-5.37199514684e-05
0.0127580195655
-4.00132816869e-05
-5.83062140913e-05
7.10864985835e-05
6.13290862696e-05
-0.0127550862022
0.0127387947896
-5.46734797843e-05
-1.78910712478e-05
-0.0122506947098
0.0122146035214
-4.71200674486e-06
-3.96547895588e-06
3.52347529188e-05
5.86354115781e-06
0.0127394942618
7.26154234226e-05
5.40480045666e-07
-5.25427333171e-05
-0.0127180172545
6.32246160527e-05
-6.82956577239e-05
0.0126915000009
8.06726326845e-05
6.35129995217e-05
0.0127150552034
-5.84635077892e-05
-3.98339990962e-05
0.0121773018026
-7.10492334376e-06
-2.27023003719e-05
-8.18131448743e-05
0.0121612311837
2.15128659288e-05
7.56841508395e-05
0.0121570463578
-1.31792726562e-05
0.0126853266756
-6.44120852287e-05
0.0126651002622
6.87417340669e-05
-7.38326774871e-05
8.45421096025e-05
8.26852716808e-05
-0.0126570148924
0.0126321554892
-7.80838897142e-05
-7.95247588803e-05
-0.0121361144384
-2.10171121691e-05
0.0121156330421
-2.88474339101e-05
-8.2620868321e-05
3.15116302059e-05
9.1495660481e-05
0.0126396553985
-1.8323878811e-05
-6.97929779667e-05
-0.000509029893192
-0.0493202306336
0.0492742173429
0.000627936975801
-4.45564227603e-05
-2.28227885785e-05
-2.5829490665e-05
-4.48353522584e-05
6.55387076977e-05
-0.000693891897515
0.0499104539201
-6.84394887541e-05
-8.5595949639e-05
-6.9298440297e-05
-9.05948642382e-05
0.000214902106778
-0.0497747518503
0.000657194786525
-0.00112201826543
-0.0500499412163
0.0501947202142
0.000891867784577
3.08912455842e-05
1.05181216187e-05
2.01806533447e-05
2.22756622756e-05
1.5149129391e-06
-0.000684110417413
-2.99410110265e-06
-3.57743608068e-06
6.98643230765e-06
-2.10445804944e-05
5.39061587312e-05
0.0503026848882
0.000551998057264
-0.050203854371
7.58579495121e-05
-0.00330551369783
-0.0317609047769
0.0290907683699
0.00473987508338
0.000855282429564
8.9202865151e-05
0.000102437646553
0.000111877396465
3.16158040338e-05
-0.0276730295911
0.0278324718346
0.00161014971163
-0.00146875397136
2.5290398964e-05
1.01423330603e-05
2.36029353834e-06
-0.000365670937722
0.00014999197023
-0.00464443081175
0.0199013182354
0.000744279669378
0.000103214132744
0.000140298874054
8.23955985486e-05
-0.0203703138917
0.00389319395782
-2.70628279176e-05
-0.00226848945856
-0.0212328172936
0.0247032022169
0.00400345500515
-0.00498452735623
-3.36271912901e-05
-8.55592480088e-05
-7.44770010193e-05
-1.92723045118e-05
-0.0071293376134
-1.35324557742e-05
2.73325299536e-05
3.84248739704e-06
0.024237877636
0.00701009245849
-0.00203889526357
-0.0220782561578
0.088590925739
-0.0142382142283
0.00845749773031
0.00294475393081
0.00663503288825
0.00265447190893
0.00103019834371
-0.0391754050957
-0.0162298759508
-0.00964675071898
-0.00850924042111
-0.0083192871961
-0.00757634616654
-0.000116807610288
-0.00474371981643
0.0829036404726
-0.00445571675286
0.00824141050998
0.0075615797688
0.00657873194234
0.00789724741945
-0.0332425206513
-0.008807676735
-0.00302027131255
-0.00313592956504
-0.0022476180822
-0.00184592495481
0.00783965518403
0.103942295276
0.00505836178355
0.00814736090414
0.00789017214355
-0.0450397228182
-0.0017060847624
0.00527784268145
-0.000521074379973
0.000219251330847
0.000844805125736
0.00182676068767
0.0410588922813
-0.020152019322
0.00018450843352
2.34436846204e-05
1.86487743892e-05
2.60113594467e-05
2.03368443291e-05
0.0489231864284
7.03436743145e-05
-7.31935658402e-05
-0.0491932344388
0.0490134929795
0.000284370201418
2.45605344203e-05
1.48083831427e-05
2.57658658423e-05
1.763618934e-05
5.94718281913e-05
-0.0492554981489
1.00977526862e-05
-3.10217071471e-05
-0.0122110394977
4.97039043038e-06
0.0122003875421
2.60421316656e-05
0.012193380424
8.6552761269e-05
1.22505729588e-05
-1.81854865169e-05
-6.84101763513e-05
-0.0122058596871
2.68674300131e-05
1.56788793126e-05
3.57466381769e-05
1.28146059831e-05
-0.00030159591229
0.0122541038526
0.0122127898787
0.0121154538174
0.0121788899752
-4.62424992489e-05
9.24550188988e-05
-2.37901093029e-05
-6.68202479951e-06
-6.87211261378e-05
0.0122000751778
0.000375095795806
-2.80033261104e-05
-1.85071753916e-05
-8.94829664039e-06
-3.96548912862e-05
7.78294528865e-05
-0.0493936637134
0.0495488565489
-5.76732464401e-05
-9.11161429114e-05
-7.05862205174e-05
-7.50553393211e-05
0.000142009712909
-0.049530161138
0.000508729541309
0.0121962764106
-2.2708263766e-05
2.09997812888e-05
-0.0122048899312
9.69593979783e-05
0.0122301388644
-0.000144717707287
0.000144742954001
-8.90879761192e-05
-0.0122220873696
8.20821836301e-05
0.000952782242964
-3.05981115268e-05
9.01131662823e-07
-1.6926358831e-05
-9.0789873183e-06
0.0492596346784
-0.000212701629917
-0.000175563255386
-0.000216057597596
-0.0001783652711
-3.86577456916e-05
-1.90351305931e-05
-2.5699907096e-05
-1.64907764584e-05
0.0495945575929
-5.73059219588e-05
-7.89690954387e-05
-6.14089174469e-05
-6.77414831261e-05
0.000154079512874
0.0497897979768
0.00089301742934
-4.26307436955e-05
-1.83923589938e-05
-2.40500058491e-05
-5.08484383059e-05
6.76281057759e-07
3.52691690845e-05
0.0122186539554
0.000110415860858
0.0122863845484
-5.46269512025e-05
1.35746020018e-05
-0.0122620689422
0.000165056393292
-0.00014839011379
0.000102210808505
-0.000156344819003
0.000128348167532
-0.000106447005667
0.0122623973572
0.0123223695636
0.000161260563451
-1.99522248295e-05
8.54451481704e-06
-0.000171150864202
-0.0123011736246
0.0499664120705
2.01319848566e-05
1.03987644474e-05
1.14776227314e-05
2.10320266069e-05
-0.00124084774975
-0.000120851422972
0.00128446270809
3.31883979194e-05
3.24369541326e-05
3.94064325689e-05
2.55554585483e-05
0.050482880836
-0.000273799316545
-0.0016577919611
3.88459674772e-06
0.0122972640193
0.000184114438687
-0.000167277435047
-5.15479839556e-05
-6.62777901263e-06
-0.0123539355509
0.000219596366444
0.0124105391423
-0.000217659117457
0.000161825788722
1.33137207725e-05
-7.2771081348e-06
-0.000174311607208
0.0123288818468
0.000173400087345
1.88755503783e-05
-2.09959083776e-05
-0.000197369850812
-0.0123703472614
0.0123966584579
0.000783190098487
-5.14619124099e-05
-1.13325327292e-05
-5.15202429118e-05
-4.9532818035e-07
8.51352887652e-05
0.0501659213633
-4.3370169488e-05
1.10517038057e-06
3.7286682957e-06
-4.07287810886e-05
9.62139400062e-05
-0.0500477538514
0.000647925698313
0.000123618779667
0.0122816703945
9.97247748822e-05
-0.0122513170138
0.0123294024557
9.78847332994e-06
-6.27116631949e-06
-0.0123165951918
0.000145081047052
0.0123482324162
2.83623633206e-05
-2.11068858557e-05
-0.000116503147704
-0.0123402699592
0.000101586891824
0.000977748502017
3.81592683125e-05
2.73794058854e-05
3.45150202932e-05
3.68445131454e-05
0.0504378639563
-7.34325103875e-05
0.0502786112793
3.47610559341e-05
1.57331702437e-05
2.74888642395e-05
2.96478793207e-05
-1.28844847114e-05
4.42121516958e-05
4.01863373676e-05
4.12263421791e-05
4.66899005597e-05
0.0504150079942
0.000728101896784
-5.91176922763e-05
-2.70393944175e-05
0.0123354362383
0.000155376610912
1.63788733215e-05
-3.33525726484e-05
-0.0123737637906
0.000164840395433
0.01239925012
0.000115095612693
4.23817027364e-05
-3.92631281985e-05
-0.000121724873954
0.0123514439176
0.000148143541038
3.53149461582e-05
-6.03011251929e-05
-0.000145734064903
-0.0123832632664
0.0124058252983
-1.41111508233e-05
0.012359920397
0.000108983429375
-0.012358779973
-4.20977562325e-05
-0.0123973281068
0.0124194030363
2.80822436687e-05
0.000140226035988
0.00069439546842
-1.12534126264e-05
-1.77410011591e-05
-1.86282859481e-05
0.0363438751505
0.0035051706117
-0.0357904095503
-0.0046966103619
0.0360711672735
0.00500124040691
-2.18958733469e-05
-1.65089133504e-05
-1.80384325039e-05
-0.0354570985787
-0.00485362567785
-0.000912026376443
6.10833317105e-06
6.17584394283e-05
2.86165523989e-05
-0.000309120235609
0.033867016385
0.0179215264466
-0.00120068483747
0.00277424196345
-0.00036654860775
-0.0106604586211
-0.000665850632064
0.0230493689614
-0.000347309541323
-0.00117462222648
0.0199380687728
-0.00304283631356
-0.0123528602012
0.0247829598257
-0.00244786930608
-0.000413741559446
0.0157818527203
-0.000385907667941
-0.00043110436924
-0.00156457479728
-0.000353898399225
0.00891218297511
0.000296995853119
-0.00158085613413
0.0172713611568
-0.00172427048603
0.000525797316083
-0.00147999224613
0.00999143352781
0.00081038049456
0.00693541974741
1.16887691137e-06
6.60102316753e-05
2.99766175096e-05
-0.000150352394684
-0.0336643900755
0.0244737303428
0.000107000772298
0.000123576518374
8.24685197819e-05
-0.0272856927137
0.00373180963801
0.00555842731226
0.00267055529601
-0.000234417245133
8.43481147185e-05
5.98342771285e-05
9.89596505254e-05
-0.00131727210014
0.0230971829021
0.00096302747424
0.000120431131676
0.000116602383243
0.000116484281358
-0.00142365563848
0.023618311951
0.00336477024816
4.43191448409e-05
5.45484101978e-05
8.8781026949e-05
0.0200155282393
-0.00212423668891
-0.011839318297
-0.0006493489006
0.0255466443409
0.0200498041505
-0.000855597928795
-0.0137698893403
0.0252491041105
0.00063062311161
0.000433480156194
-0.00112847319575
3.02535166578e-05
3.26678469114e-05
8.53681670077e-06
0.0283261383972
6.81198078762e-05
0.0252806549437
-0.00224445688905
-1.48101776413e-05
-2.52309295543e-05
-2.34629857586e-05
-0.00216971962321
0.000996500760066
1.16685504479e-05
-3.16604921987e-05
-1.08218240684e-05
0.0269356788257
0.0188894203707
0.00043957505933
0.00108179813787
0.0120334921975
0.0191100605848
0.00207949054462
0.00336937556461
0.0128153219854
0.00396690132462
-0.00196563722214
3.40942397196e-05
-2.4489893989e-05
3.09502013594e-05
-0.00184382915867
0.0209304081739
-3.41372811126e-05
8.74212617857e-06
1.29109670026e-05
-0.0197134832257
0.00463068773166
0.0189757207487
-0.0136131160607
-0.000400855110855
0.000520090188244
0.0252472776066
0.0266367256766
-0.0192282149151
-0.000855647154904
0.00332703398609
-0.00516713954005
-4.20659997992e-05
-4.87433393959e-05
-5.42774516811e-05
0.0277012232904
0.0248339707451
-0.00678409868424
-8.25693304649e-05
-5.28085516639e-05
-6.96779232995e-05
-0.00729330199353
-5.42906818566e-05
-5.30771452696e-05
-4.74709980078e-05
0.0284428506141
0.00720131694757
0.0202412676908
0.0015734148831
0.00276856255308
0.0158997584596
0.0232376959093
-0.000973493575696
0.0214895663003
-0.000942557645708
0.0122969635239
4.58293900385e-05
-3.16630425853e-05
3.34054116787e-05
-0.0123210858087
3.96148578627e-05
-0.0122924784157
0.0122653805523
-2.50854026285e-05
6.66421896255e-06
-3.7685837192e-05
2.50487792711e-05
-0.0122162787521
-4.18832698223e-05
-0.012210330673
3.88408340233e-05
0.0122001829883
4.9533842506e-05
0.012270994876
3.96359632939e-05
-0.0122161316171
-2.45108468463e-05
-0.0123170221396
0.0123061730584
3.77018328479e-05
4.29755143562e-05
-0.0123288983021
-5.80026218028e-05
-0.0123224479354
0.0123129174511
6.40427949583e-05
-3.57632347238e-05
-0.0122088471692
0.01219314878
-2.73743700763e-05
-7.00170202399e-05
8.7748554531e-05
-0.0122125891682
0.0122875165261
4.51970727778e-05
-0.0123397854489
-0.012214204533
-0.0122805031697
0.000105570529833
1.13244620138e-05
-8.13208448068e-05
0.012271817672
-7.58569906575e-05
0.012308570162
8.91742006143e-05
-2.60988289402e-05
0.0121920867406
-3.58752829338e-05
5.44347603268e-06
-7.31193896763e-05
0.000107397057344
0.0122226125242
-5.92224225616e-05
0.000125929588082
0.0123065602079
-3.8538235093e-05
0.0121973799983
-4.470384178e-05
0.0123699336235
-4.15806547001e-05
5.80243144773e-05
-0.0123696843972
-0.0123438614205
6.59348255142e-05
0.0123444085757
9.04039694429e-08
9.42790310593e-05
-0.0122103379937
6.63124735858e-05
-0.012202582418
9.63536552415e-05
0.0122029744745
-0.0123524518613
8.33262797456e-05
0.0123790097134
8.73465585424e-05
-0.0122070880658
0.0123996440072
7.87567279922e-05
-8.71990834902e-05
-0.0123909846202
-0.000104719140197
-0.0124285618105
0.0124510532723
0.000136309515153
0.00010839862648
-0.0122133533542
0.012219049954
0.000124451825089
-7.82694318544e-05
-0.0122116782655
6.7124154121e-05
0.0124161245055
-0.0124092713744
0.000109000541676
-0.0122088562566
-0.00014225416261
-0.0123893598803
-7.6790965128e-05
0.0124009745468
0.000163143628618
0.012346168302
9.9907460107e-05
4.79612041415e-05
0.000124960742486
0.0122418220579
7.58912934203e-05
0.0122277429471
0.000112042813213
0.0123521803117
0.000120709630674
0.0122561624844
0.000133356082817
-0.000191452674874
0.0124177162281
-6.4761623285e-05
0.000209150606091
-0.0123653338306
0.000236071978922
0.0123633517313
-0.000219649693646
4.93420017371e-05
0.000139067179656
-0.000123682074138
2.20287289215e-05
-0.0122771597504
0.000174447087037
0.0123057296283
-0.000171933203894
0.000250525871139
0.012416368162
0.000152812985943
-0.0124353887754
0.000179445235883
-8.89291829663e-05
0.012450847101
-0.000139741940558
0.0124788320072
0.00016151921813
9.91331444429e-05
0.0122469063773
9.58492855016e-05
-0.000132039033747
0.0122911461034
0.000124197069223
0.0124939220084
0.000192843562032
0.01227572531
0.0124614969361
0.000221325704453
-6.52098256461e-05
-0.000252406833743
-0.0124962818173
0.0124908711579
0.000247852692613
2.18861722163e-05
-0.0122962211542
0.0123214869892
5.5359660194e-05
-0.000156182840931
0.00014529876243
0.0124573787261
0.000223393482323
-0.000326575084327
-0.0124255063124
1.82582784006e-05
0.0124407852947
0.000327641332608
-3.47273002112e-05
0.012373225994
0.000280623381407
-1.96260029196e-05
-0.000267019992513
-5.85885295696e-06
0.000199552413077
0.0123201895295
-0.000191338959814
5.20447904409e-07
0.0123108720639
0.000188414828528
0.0123955417815
-3.62855944621e-05
-0.000318661499742
0.000289514558097
-1.77437899318e-05
0.012328549321
0.000202145474421
-0.000365318700296
2.21950202243e-05
0.012498550018
0.000364726791515
-7.95765489853e-05
-0.0124719810494
0.000385445671918
0.012562849145
-0.000390362819882
-9.25514125421e-05
-9.78349350895e-06
0.000211817437809
-0.000205745525609
-0.0123597557621
-5.73316696953e-06
0.000217421781027
0.0124010102326
-0.000358750927445
-9.29298180653e-05
0.000211294728676
0.000387735444646
0.0125693126668
-7.857423853e-05
-0.0124679937314
0.000312554559063
1.76232921588e-05
0.0124853332221
-0.000285252928427
0.0125013424593
0.000277832847392
-4.81931554521e-06
0.0123253020681
-2.32045988197e-05
-0.000182772177222
0.0123430167811
0.000166651770627
0.0125142112477
0.000297345658474
0.0123380011809
0.000340686889541
2.11955706246e-05
0.0125211260213
-0.0125379688535
-0.000357390824811
0.000328245549689
0.0125785707151
-0.0123670350565
-1.06951455793e-06
0.0124001104258
-3.90714215578e-05
-0.000192202462161
0.000172184632109
0.000317172032846
0.0125759785577
-0.000192292356792
-0.0125344090683
-5.93492349733e-05
0.0125366555434
0.000180968578262
0.0125117642325
0.000169701002896
-0.0124815469404
7.83278312447e-05
0.000118942916551
0.0123119111251
0.000116698596637
0.0122950649669
-0.0122694455772
9.87366253282e-05
0.0125214212678
-0.0125078128674
0.000169513375139
0.0123229731701
0.000113987462313
-0.000213792703823
0.0125383551114
-3.44614200776e-05
0.000195144605694
-0.0125201783262
0.000230257858864
0.0125199606957
4.10504713368e-05
0.000133852175895
-2.1628676384e-05
-0.012327976205
0.000129709901594
0.012340660634
0.000204343126911
0.0125417130956
0.000124934950983
0.0125513830802
0.000171056115123
-2.2435823735e-05
-0.0125484979184
-0.000174569284791
-0.0125559515389
0.0125580782588
0.000152172578883
-3.15077861909e-05
-0.0123361909232
0.0123467086988
2.10649093042e-05
-0.000112935690574
-0.0123385560657
9.8889017741e-05