/*--------------------------------*- C++ -*----------------------------------*\
| =========                 |                                                 |
| \\      /  F ield         | OpenFOAM: The Open Source CFD Toolbox           |
|  \\    /   O peration     | Version:  v1906                                 |
|   \\  /    A nd           | Web:      www.OpenFOAM.com                      |
|    \\/     M anipulation  |                                                 |
\*---------------------------------------------------------------------------*/
FoamFile
{
    version     2.0;
    format      ascii;
    class       surfaceScalarField;
    location    "0.65";
    object      phi;
}
// * * * * * * * * * * * * * * * * * * * * * * * * * * * * * * * * * * * * * //

dimensions      [0 3 -1 0 0 0 0];
oriented        oriented;


internalField   nonuniform List<scalar> 
92311
(
0.200398823847
-0.000114526142413
0.000217235033477
-0.200358507105
-0.000143025637519
-0.000132944191844
0.200478749785
0.000181154775955
-0.000128500528286
0.200377134948
-0.000246671689764
0.000216667473728
-0.200326718612
-0.000135333099317
-0.000264756480391
0.20045770978
0.00017371133356
-0.00012307651633
0.200356456711
-0.000138491958976
-0.000136033174541
0.00020797596752
-0.200298642824
-0.000114999867482
-6.03505561834e-05
-6.28972458539e-05
-0.00012148421755
-0.000115164375411
-6.24613473856e-05
0.200402568506
0.000159181251882
-0.000108705758842
-6.2481733779e-05
0.0500808766158
-3.54641369676e-05
-6.25979804668e-05
-5.51659237912e-05
-3.41474360648e-05
4.78155051911e-05
-0.0500650057087
-1.48011610917e-05
-0.0500893215236
0.0500868039016
-5.66077927906e-05
-1.17013220435e-06
-5.41122568092e-05
-1.31028983416e-05
2.96744558104e-05
-2.36643906035e-05
-0.000290057638106
0.0307365354709
0.000192013929634
0.00033978055783
-5.65540143183e-05
-0.00402812176508
-0.0316521508013
0.00659851175975
-0.00183987876599
0.0482622831311
0.00228541742769
-0.00594645275837
-0.0434199760074
-3.93337750757e-05
0.000138250548009
0.000377866106253
-0.000384307265878
-0.00127376625705
-0.011156892717
0.00879958691377
0.00354180210594
0.00911602582656
-0.00209220949523
-0.00268661442106
-0.00655768747353
0.0118710686985
-1.9380049368e-05
-6.14843935956e-05
-2.59162115686e-05
-5.62264194575e-05
4.01353425208e-05
-2.1489714384e-05
-9.25177884041e-06
0.0123791761525
-0.000112067001929
-4.5593243678e-06
-0.0125435273514
0.0125585060328
7.28617828503e-05
4.16014150096e-05
-0.0126149442703
-5.66530108701e-05
-1.04482915194e-06
-2.22860103828e-05
-7.05136090928e-06
0.0500757887424
-5.38081662334e-05
5.82665261807e-06
-4.77612778431e-05
2.10166460678e-05
2.15081199366e-06
0.0500765726116
-2.8826485086e-05
1.40010569061e-05
-2.86213343909e-05
-0.0500954229762
-2.46208676125e-05
0.000394633248391
-5.44699321226e-05
0.0123587038598
-0.000136855576242
-3.19651122542e-06
-3.45066458506e-06
0.0125044530294
-1.51230843197e-06
-8.30748331857e-06
-0.0124982360696
0.0125020225711
-6.95347609958e-06
1.46837207588e-06
-0.0124977262439
-0.000130263304635
0.200394201226
0.000431360655302
-0.000226670040139
-0.200468628547
0.200595893494
-0.000155234876143
0.000143679897757
-0.000106501608872
-0.000171900032272
0.20074030001
0.000110912434573
-8.41949945833e-05
-0.000188618261597
0.200415361871
0.00040136313071
-0.000244397243306
-0.20051428543
0.200581648983
-0.000318651562394
0.000138623079025
-0.000100134433408
-0.000355646390118
0.200735142331
0.000106898108262
-7.7551070948e-05
-0.000141152833513
-0.000142891695787
-2.66050929894e-05
0.000445387472759
0.20033689986
-0.000238035125981
-0.200409181656
-1.3296040717e-05
-0.000136386477744
-0.000142091830026
-0.000103578374629
-0.000129565635742
0.200554460759
0.000131490397144
-9.08886298402e-05
0.0500609823639
-5.43743791561e-05
-2.45568386096e-05
-2.53347047013e-05
-4.66708626734e-05
0.000108142877067
-0.0500672164418
-9.21327284809e-05
0.0500895121585
-2.4417711731e-05
-5.2871313155e-05
-9.51860716488e-06
-6.38403660501e-05
-2.35314002521e-05
2.4064102602e-05
0.00712087958861
1.64432396997e-05
0.0459555695234
-0.000358948327444
0.000366492087374
0.000174567463712
-5.29884270462e-05
-0.00496053636907
-0.00706709290664
0.00693576380063
0.00239186404993
0.00546627948771
0.000759957472816
-0.00339333156215
0.0051416495495
-0.0173272378543
-0.00815704750727
-0.000606017157667
-0.0108154336809
-0.00262414712809
-0.00208307791366
0.00996935377979
-0.00505177863
-9.43821449866e-05
-3.04480598927e-05
-4.5466323803e-05
-4.33182524143e-05
-3.19866200384e-05
0.0500597546143
0.000103933031815
-3.45877066398e-05
-3.88979038045e-05
-5.1077490774e-06
-1.49171189763e-05
0.0500834090622
-4.11277517948e-05
-0.0500698158235
0.00024304899037
-2.54520736235e-05
0.0124220753296
-8.10691334083e-05
-1.86449989207e-06
-0.0125565376079
6.79044731946e-05
1.44192821178e-05
-0.0125967929104
-4.32457283345e-05
1.45547643048e-06
0.0125565328583
-9.76474962877e-05
0.0125350831779
3.78130259235e-05
-3.50638536471e-06
-0.0125062939984
-3.02340839492e-05
-2.48330673733e-05
-6.80253214391e-05
-5.94677639381e-05
-2.98049047e-05
0.050129152567
3.07290825108e-05
0.050086332988
-4.57438017415e-05
-1.43147220581e-05
1.82472191762e-06
-5.76458560373e-05
-2.18948040447e-05
-5.21966881867e-05
-6.12635437927e-05
-3.08737408305e-05
-3.4546702419e-05
0.0501273968437
-2.18457344384e-05
-6.43043946193e-06
2.02332487802e-05
-9.83169629941e-05
0.0125362007906
5.89390311148e-05
4.53641431891e-05
-0.0126384428685
-3.6615502344e-05
0.0125854629186
-1.43510451756e-05
1.13446903079e-05
-9.33332794918e-05
0.0125319226824
-0.0125066253124
-0.000112392646625
0.0125444939269
2.74001687725e-05
-4.79827030304e-06
0.0342035171013
0.000388292907953
0.000187695011733
-0.000339083108623
-0.00147756545585
0.000194954082169
-0.00235165763051
-0.011348800873
0.000132181841403
-4.64489641407e-05
0.000345173260072
-0.000368463358081
0.0529159759799
0.00546815462412
-0.0448130604121
-0.00229842292433
0.00304156254116
-0.00315919566011
-0.000137963021844
-0.00248885547005
-0.000786782812288
-0.00143676253218
-0.00999016303449
0.000153289339837
0.000394117950024
-6.27272792335e-05
-0.000106609098331
0.000791363503048
-0.000552695260903
-0.0029860209207
0.000182021204763
-2.1805782865e-05
0.0124960403067
4.47591279064e-06
-0.0125234138521
-0.012541459881
-4.7404976986e-05
-1.1346683106e-06
0.012529709711
-2.27855458683e-06
4.68259622571e-05
6.23680717496e-05
0.0124617161494
-1.10208240178e-07
0.000108377543161
0.0125942358301
-0.012463633647
-1.16424631505e-05
-0.0125083796961
-1.65136517809e-06
0.0125512458043
-1.46488526308e-05
0.0125152767841
7.90445065066e-06
0.0125022685164
2.72308901285e-05
-1.45453488879e-05
-4.78172326391e-06
-1.04921780816e-05
-0.0125500261015
0.0125357553332
4.88548477343e-06
0.000119464294027
0.000113011750201
2.96342184098e-06
4.77503478069e-05
-0.0123697996859
0.0124601830357
-6.71153410524e-06
0.0125186861074
-5.08498623583e-06
-1.06563192474e-05
7.39000571975e-06
-0.0125505238008
-3.80400091488e-05
4.00704414404e-06
0.0125339059321
-5.91134503519e-06
-2.48057694007e-05
0.0125027849958
2.07170926153e-06
3.93449022693e-05
1.88901558231e-05
0.0124581983604
-3.96128706024e-06
0.000105134574767
0.0126204982901
-7.7198041969e-06
-5.69840619677e-06
0.0125666330485
-7.19311307248e-06
0.0125121350161
5.392392424e-07
-3.72133681976e-05
-0.0125377692473
0.0125228794515
-3.08853971478e-06
-2.99831977515e-05
-0.012619987657
0.0125764515743
-3.25920236736e-06
-0.0123780942787
-7.08207009408e-07
0.0124788021773
6.31231482575e-05
-1.73211882317e-05
-4.31734580645e-06
0.00013096859092
8.85108448115e-05
-3.62256046191e-06
-1.94940812834e-06
-2.13406304429e-06
-2.00713928941e-05
-0.0125336795968
0.0125217173231
-3.64646589255e-06
3.31956874448e-05
-0.0123823671102
0.0124820743313
-0.0126202393164
0.0125746346605
1.20649016514e-05
-2.22699702817e-05
6.79005732608e-05
-0.0125336579999
6.46776091083e-05
0.000119949707668
-0.0124707443758
1.08234243469e-05
-0.0125152154445
-4.57265491459e-06
-0.0125653655569
0.00927332155619
-0.0114493489157
0.000299948813723
-6.20308625607e-05
0.000164022418615
-0.000261134957066
0.0337225345554
-0.035832599933
0.00414535321105
0.00300001464814
0.00226525111492
4.7905625013e-05
-0.00311037714058
0.0416691510955
-0.00511390062803
0.000129048663728
0.000269695645951
-4.05938798158e-05
-0.00611772803949
0.0131896689418
-0.0437423390904
-0.00351648970517
0.000295689659001
0.000172429049965
-0.000234134016074
0.0389644428546
-0.00539109756376
2.09271303562e-05
0.000949777507245
5.84391797684e-05
0.000798996850581
0.00132030369328
0.000554067134151
0.00512908899375
0.047357484765
0.000356730635419
-0.000303118945114
0.000146372755131
-1.84519642712e-05
0.00736749009503
-0.00131723263141
0.00223666561974
-0.000911964134817
-0.00185987126239
-0.000823323415193
0.0126763389234
-0.0110108845764
0.000329183930957
-5.71795044393e-05
0.000186857982582
-0.000296636940325
0.0392153786439
0.00632366328074
0.000972094638092
0.00365324998138
-0.00053921147205
0.00323575885799
0.000409504633954
0.000188026209513
-0.000334048247149
0.0394749825
-0.0079702526156
-0.00102140941994
0.000772813344181
2.4997043723e-05
-0.0125284547104
-3.7542766595e-05
0.0125201058484
-3.3470500897e-05
0.012499002121
-4.41375707969e-05
1.6281079034e-05
-0.012521137848
2.94548060724e-05
4.13691523001e-05
0.0124793291006
1.538773376e-06
7.92622391285e-05
0.0125902924052
-0.0124883551422
8.00367832377e-06
0.0125090842245
1.90417894711e-05
-0.0125070411432
-3.29320726136e-05
0.0125451211567
8.86172821468e-06
1.70506705884e-05
0.0124965159797
1.07199309766e-05
-3.4724768258e-05
-0.012530182341
-3.88632743972e-05
1.73977257782e-05
0.0125206254854
6.76542341824e-05
9.99017526022e-05
1.11655629016e-05
4.9905585858e-05
-0.0124055230353
7.93691024595e-06
0.0124773631964
2.02931342977e-05
-3.44827609028e-05
0.0125101443362
1.64803682929e-05
0.0125902846861
8.40320117035e-05
7.19996409027e-06
-0.0124789971002
4.05612347323e-05
-5.93810061452e-05
0.0125430633349
4.09640890385e-06
1.3501175787e-05
0.0125250122831
-1.5880036259e-06
0.0124988723912
1.72511773638e-05
-0.0125180028701
4.90323658385e-05
-0.0124069313791
0.0124704069728
0.0125123046042
-0.0125503704858
4.13643445218e-05
0.0124922509467
-5.61395646022e-08
-0.000116205606445
0.0123871785045
-1.22816707567e-05
0.0126312659946
-4.20021222856e-07
2.15806512581e-06
-4.95639640148e-05
0.0125273355263
-7.44715722053e-06
4.20730554873e-05
5.28528378059e-05
0.012480404365
-1.37562051674e-05
0.0125102304377
2.98293438181e-06
0.0125776089723
3.76015368482e-06
-1.34923558699e-05
0.0125003955735
2.4868692093e-05
-9.33899837693e-06
-0.0125525447547
-1.64290997733e-05
0.0125424419464
3.86446268996e-06
0.000120243329762
0.00014174520119
-9.82924157261e-06
5.59747459395e-05
-0.0123964523357
1.27200623706e-05
0.0124798971261
4.8486192657e-06
-1.14450792677e-05
0.0125215305533
1.42741228533e-05
-0.0124931931654
-3.10738861074e-05
7.70098704165e-06
-4.37006103443e-06
4.45402699412e-05
-2.83691744538e-06
0.000119587798831
0.0126257112487
0.0124195297836
1.62533009345e-05
1.90605068135e-05
0.0125010094995
1.50364978166e-05
-4.95919586387e-05
0.0125241284528
0.0125806147734
0.0126147291409
0.000100081453568
3.32537856851e-06
5.20668191434e-05
-6.4930929561e-05
0.0125667351633
4.44152110127e-06
-5.8208048413e-08
0.0125388338598
-3.57139857689e-06
0.0124984278613
1.28270000362e-05
6.83954753369e-05
-0.0124114341663
0.0124779202501
0.0125207453329
-0.000145124376367
-0.00014387337531
-0.000141524173885
0.000101746448052
0.200729547734
-0.000133227036725
-6.91419153719e-05
-3.58519163043e-05
-6.69797040991e-05
-7.89798278029e-06
-2.15895667319e-05
-6.27168291297e-05
2.63209340302e-05
0.0501526398336
-0.000421897445178
0.00969061556109
-0.00363728339112
0.000186153941275
0.000408564846055
-8.60670591565e-05
-0.00782422847614
0.0411659494486
0.00817870830351
-0.00996309892083
-5.02197476504e-05
0.00555441834613
-0.00640699535785
-0.00455152637779
-0.00283372985646
-3.65396422488e-05
-3.65292666363e-06
-3.63365624833e-05
-1.58806767846e-05
4.98575593257e-05
8.55558856264e-05
0.0500883594178
0.000295905456293
-2.064665754e-05
-0.00011568720202
0.0123792596909
0.0501623809846
-6.08574782686e-05
-3.71739342378e-05
-5.952835291e-05
-4.08232887994e-05
-1.62739603003e-05
0.0501790387842
-5.9090260833e-06
-7.22242797178e-05
-2.24672652246e-05
-7.06709369848e-05
2.94801497462e-05
-1.6225815173e-05
-5.56495546788e-05
0.0123722087591
-0.000123414839
-2.93576772304e-05
0.000323793850957
-1.40113330326e-05
-0.000136398174288
0.0123861382386
7.56793174421e-06
0.0125840203701
7.1258804073e-05
5.51965195742e-05
-6.91498071315e-05
-0.012640585073
-6.03844502849e-07
0.0501972976654
-6.09828436042e-05
-1.87466413734e-05
-5.69024598697e-05
-3.44622831375e-05
0.000143043080759
2.56033787066e-05
-1.57361032451e-05
-5.30065440113e-06
-7.23203927034e-05
-2.74548514123e-05
-7.13818413431e-05
0.000135812953744
2.14524314611e-05
0.0502244001114
-7.71587462539e-06
0.00044405551619
-5.2581741948e-05
-0.000164293451016
0.0123577239945
-5.70918289191e-07
6.60967024375e-05
5.69313875217e-05
-6.89740844167e-05
-0.0126552807969
0.01260320748
-1.93077667555e-06
0.000345504107263
0.000192404279074
-7.80703513055e-05
-0.00757726864355
0.0335365233681
0.00356615785739
0.0355384154677
0.00960849728303
0.000419581629676
0.000235725803401
-7.24588916139e-05
0.00350003321815
0.000502866875481
0.040223266335
0.000205253954794
0.00047198117434
-0.00043936763457
-0.00673783650071
0.00138476700458
-0.000712621552432
0.00249074002321
0.00175861126986
0.00291926815911
-0.000330570136358
0.00132524234851
0.00277352852146
-0.000708640453968
0.0399607353141
0.000471604193726
0.000243569548454
-7.49425115174e-05
-0.00583780101283
0.00587196027481
2.70459627696e-05
0.000227348359827
0.000501074604855
-0.000451049367646
-0.00496368152085
0.00534121680195
0.0409892508987
-0.00161831622229
-0.012541554275
-2.4822401067e-05
-2.91744402992e-05
3.03327551688e-05
0.0125287133104
5.7119602018e-06
0.0124995075647
9.25729499377e-05
0.0126037072974
4.39257503684e-06
5.37193461347e-05
5.36737164277e-05
0.0124645944354
3.25761615927e-05
-6.39896492405e-07
0.012555497836
0.0125157878021
6.0152693846e-06
-0.0125668595
-4.23990740721e-05
-1.57951846465e-05
0.0125521174968
0.0125111240152
-3.61739742112e-05
3.79215644038e-06
3.87174069832e-05
7.838551114e-05
-2.52625934392e-05
0.0124664549311
0.00012901403103
0.012635204733
7.59789991204e-07
5.12451579441e-06
0.0125291369428
-1.53757095293e-05
5.7147858072e-06
0.0125792069591
-0.012564770299
-4.25690537561e-05
-2.23540437891e-05
0.0125527978335
-1.70137477628e-05
0.0125068790676
-2.39902299611e-06
0.000135708466174
0.0126268497781
6.28475681249e-05
8.20276885764e-05
0.0124729655183
4.40063390799e-06
0.0125811450088
0.0125289769747
-3.10346040115e-06
0.0125172882751
6.00356981777e-05
-4.31448847658e-05
1.27779950994e-05
4.60599866236e-06
-0.0125769681377
0.0125602956955
-5.19268070727e-06
4.55669756959e-05
-0.0123674367202
0.0124687653494
-1.01273431846e-05
0.000148344517359
0.000157105158755
-5.22733377477e-07
0.0125339771224
1.11857501234e-05
-1.66184714392e-05
-4.59588893338e-06
-0.0125764128908
-4.03126719654e-05
-1.65166695941e-05
0.0125623478636
9.93037618378e-06
-2.25566088531e-05
0.0125159768275
-4.44561051875e-06
0.000132915177854
0.0126447576884
-1.10670417142e-06
5.8530849398e-05
6.6378989578e-05
0.0124768840411
-3.25523701426e-07
1.10904223002e-05
0.0125929573152
-4.40382932981e-06
0.0125349141266
-3.38585570242e-06
0.0125242851936
6.53707152244e-05
-4.20509209935e-05
9.44944390487e-06
-3.96105474222e-07
-0.0125864791293
0.0125729492716
-1.73096177848e-06
5.56248398058e-05
-0.0123764853181
-6.40173254063e-06
0.0124861226472
0.000157617580375
0.000163347852205
2.16276499569e-06
9.23115926462e-06
0.0125429897226
-1.10945122595e-05
-1.6147759476e-06
-0.000228052384595
-0.0497212235308
0.0496619119991
0.00024480295136
3.55395569707e-05
5.28046827206e-05
4.54217001115e-05
3.50648089527e-05
-0.000126657341195
-0.000220757998916
0.0499353073059
-3.3482835259e-06
2.40062142326e-05
1.49693106127e-05
-2.07656754392e-06
5.91782523272e-06
-0.0499084498284
0.000154378045279
-0.000411346348001
-0.0500036721981
0.0501288421381
0.000261276670474
-3.05760415616e-06
-1.69219281969e-05
-1.32417913442e-05
-6.07259107327e-06
6.41936673121e-05
-0.000167898625935
-2.45254529883e-05
-2.1167151933e-05
-1.95209127787e-05
-2.18705379872e-05
0.000100453054836
0.0501194130016
0.000102001859369
-0.0500668852413
-9.78203168267e-05
-0.00876034518967
-0.0409527702736
0.0363115728008
0.016042115673
-0.0024125234349
-7.13035783297e-05
-2.51046499053e-05
-4.2875719297e-05
-7.62920743163e-05
-0.0392760037787
0.0473951276837
0.0219033175303
-0.0133687684153
-8.54498886893e-05
-5.10721614888e-06
5.66749666175e-06
-0.0164904213768
-0.00010956523758
-0.0132529420676
0.041587123285
0.00580606967381
-6.07826733834e-05
1.5828852669e-05
-2.62246646621e-08
-0.0457554128689
0.0117679636883
-3.94709952127e-05
-0.0178500843745
-0.0354425726372
0.0401160268695
0.0149551753338
-0.00169511970849
-3.07460864102e-05
-2.47727009128e-06
-1.07234847104e-05
-7.85346583667e-05
-0.00689792820224
1.57020528522e-05
6.07037987517e-05
-2.34569693629e-05
0.0300815170029
-2.11918795351e-05
0.00461364200845
-0.0277505072546
0.0125597332489
-0.0111600964647
-0.00278009370945
0.0118245121394
0.00521446438588
0.00939115827129
0.00255282864138
-0.00883695369428
-0.0205350387077
0.0222663606136
0.0262472790807
0.0159435491723
0.0210243996666
-0.0190381471274
-0.000806978637449
0.00314461960293
-0.0108047821726
0.00179730575496
0.00882808982046
-0.00766250097131
-0.000529980970316
0.00394796560181
-0.0144991461238
0.0120186199713
0.00920599308756
-0.00466411282767
0.00116196596054
-0.00792916412795
0.00719078116897
-0.00704589366553
-0.00871827449765
-0.00593636193946
0.00137189838639
-0.00261544332885
-0.0120624453924
0.00608906465384
-0.00491659520969
-0.00916059681921
-0.00387646955023
0.000136571360099
0.00109349925292
8.71171326685e-05
4.07669241516e-05
6.89202596532e-05
3.95798019778e-05
5.8797951227e-05
0.0495679897887
-0.000133902938249
-5.61155037554e-06
-0.0497237378455
0.049633505246
0.000138451991579
5.97385353963e-05
6.52281221578e-05
5.82935051384e-05
5.51316666818e-05
-0.000169833751554
-0.0497535233211
0.000112496137351
-9.01004114206e-05
-0.0124412088163
-9.02046078343e-06
0.012425655842
2.1760713712e-06
0.0124459363685
2.42578443381e-05
9.44509691754e-05
-7.64837326859e-05
-2.55183873804e-05
-0.0124626269793
6.88037650763e-05
6.99150302168e-05
6.49208286666e-05
7.0040826986e-05
-0.000144829267639
0.0123931143547
0.0123711782915
0.0123474724065
0.0123931144921
-0.00022843536754
3.7345401662e-05
7.0953200856e-05
-7.41043229115e-05
-3.11653044722e-05
0.0124428660421
0.000142896818457
3.47820066565e-05
6.13128306672e-05
5.37127088077e-05
3.49794660225e-05
-0.000100163604802
-0.0498103360064
0.049821083691
4.7469774731e-05
4.76283523276e-05
4.32869666135e-05
4.0127664821e-05
-0.000156608143459
-0.0498521655439
0.000151964460586
0.0124592918547
0.000102422869162
-8.83338594312e-05
-0.012467252929
1.81395746273e-05
0.0124859720968
5.63078980085e-05
-4.57713510274e-05
-4.11763753681e-05
-0.0124923048064
3.6977050622e-05
0.000358061557912
4.45869066081e-05
6.61953115502e-05
5.96504686596e-05
4.51293737321e-05
0.0496638274929
-9.93055871333e-05
-8.59292716869e-05
-0.000102411158335
-8.42011555408e-05
-5.54728237052e-05
-5.35830031771e-05
-5.05850869561e-05
-4.42206473992e-05
0.0498179942007
3.54119898832e-05
4.70713016158e-05
3.71357913261e-05
3.81775686606e-05
-0.000130964018945
0.0498719117872
0.000303687320074
3.52018598134e-05
4.65345871601e-05
3.62837900162e-05
4.08445997269e-05
-0.000158638183945
-7.80902142203e-05
0.0124503287294
2.65784049699e-05
0.0124458748296
8.95450952605e-05
-8.02331642056e-05
-0.0124440365221
6.44831732637e-05
-7.56388059116e-05
4.98889852452e-05
5.49632893991e-05
-4.33811288202e-05
-5.36405967679e-05
0.0124781286065
0.0124746513942
7.47529692771e-05
2.60965615013e-05
-2.35247252315e-05
-7.27711570971e-05
-0.0124792036328
0.0501167622045
3.39460599632e-05
4.56171587526e-05
4.11594847132e-05
4.70038581333e-05
-0.000602518618184
-0.000221686396255
0.000473436379554
2.05080400672e-05
4.75394315812e-05
4.5583570758e-05
1.58918886043e-05
0.050483256862
-0.000237433370305
-0.000732178183955
-7.53405367941e-05
0.01245956429
8.25186417147e-05
-9.71854024546e-05
1.53224362363e-05
-3.42503359365e-05
-0.0125150282993
9.44117205171e-05
0.0125780312163
-0.000138439282769
8.44851823673e-05
-4.9465796037e-07
-1.49524920516e-05
-7.96126593363e-05
0.0124852227072
8.95301899467e-05
-3.03401039048e-06
-9.75934384444e-06
-0.000103296444495
-0.0125145507996
0.0125411532718
0.000205386117667
-9.73197510992e-06
-7.85458282042e-06
4.63328828372e-07
-7.44903009676e-06
5.44031421621e-05
0.0500321622655
2.56283968003e-05
2.74924931873e-05
2.4501018462e-05
2.60662056121e-05
-0.000124814134338
-0.0499588543971
0.00015317629149
-5.48365074542e-05
0.0124838198885
1.59690380362e-05
-0.0125045031447
0.0124879907438
5.06767433426e-05
-1.47415541042e-05
-0.0124919944438
4.28220025447e-05
0.0124976342402
3.05615072373e-05
-1.42960221962e-05
-3.85953724212e-05
-0.0125117436168
3.6452893482e-05
0.000258051177257
-6.31207664318e-07
-8.12127308325e-06
-4.60417024574e-06
-1.17366714467e-05
0.0503112757558
5.80078562597e-05
0.0501104248352
2.65012989615e-05
3.28002382057e-05
2.77019285197e-05
3.22537034043e-05
-0.000104225087225
2.81796175688e-05
2.74271214268e-05
2.85700227931e-05
2.41201907575e-05
0.0501931163336
0.00017412027864
-0.000107112562794
-1.01399458904e-05
0.012495260991
4.78291386879e-05
5.82080447065e-05
-2.36307731479e-05
-0.012524741929
3.08891960796e-05
0.0125488652402
3.84703276786e-05
6.24272889684e-05
-2.70313565593e-05
-4.85548968118e-05
0.0124723592526
3.05091216281e-05
3.7154409005e-05
-9.9382175265e-06
-5.83289326824e-05
-0.0125280090963
0.0125287314323
-5.21696015905e-06
0.0124725719121
-2.43438220671e-06
-0.0125052822703
-5.59303818844e-07
-0.0125358809289
0.0125357827525
5.00356452751e-05
-1.87388019109e-05
-0.000103711601069
-9.23313670178e-05
-1.57201506668e-05
-3.50544593541e-05
0.0338286517502
0.00325674717924
-0.03738580694
0.000658818548736
0.0353641006369
0.00442201182099
-5.87292418324e-05
-5.83433205843e-05
-9.66031452352e-05
-0.0388890146577
-0.000694893696181
-0.00395472906472
-6.72610472952e-05
-7.58475718143e-05
-7.18491902456e-05
-0.00221445118009
0.0330566172978
0.00196617504867
-0.000120583752636
-0.00111997952629
-0.000623290614322
-0.00288683342085
-0.000315685264625
0.00330161002464
0.00998455315517
0.000817038784393
0.0023089791962
-0.000349146539378
-0.000839392766062
0.00220819149717
-0.00122444873174
0.010394470109
0.00309758322546
-0.00110503168632
0.0235367954806
3.86518709672e-05
-0.00294781616094
0.000902134389495
0.0310241554708
0.000367948977683
0.00272386380228
-0.00156038513912
0.0158861967874
-0.00233152238562
0.00151220904773
0.0216279079452
0.0108347862306
-7.6123496257e-05
-7.37459574807e-06
-2.97984212985e-05
-0.00558873237472
-0.0415614904826
0.0440049720595
-4.20209455243e-05
-2.51120601853e-05
-8.53859045467e-05
-0.0449838284725
0.00250667871645
0.00951574438623
0.0203197829189
-0.0102138624736
-7.44182853609e-05
-4.74422961094e-06
-2.34372509023e-06
-0.0129043229073
0.0381223483997
0.00881452710965
-2.81808296472e-05
-2.03956726819e-05
-4.23221739685e-05
0.000868574631252
0.0401778976835
0.0175190071702
-4.92624814143e-05
-1.67380343281e-05
-3.23556458779e-05
0.00194666936271
-0.00152244290742
-0.0014155236095
-0.00276785316157
0.00209543021961
0.0039473553265
-0.000656664195775
-0.00367173375373
0.00505602995067
-0.00353747918268
0.023051351292
-0.0112525863837
-3.36232188611e-05
4.20996149744e-05
-2.24209550721e-05
0.0548155032626
-0.019186848095
0.0425261789524
0.00178249147301
-4.69626522064e-05
8.41998742063e-07
-3.49072123944e-05
0.000630167890609
0.0162964173132
1.01371845767e-05
2.04044165311e-05
-3.27121803414e-05
0.0486487003014
0.00201439865494
-0.00284002957168
-0.0036764513204
0.00131738414277
0.00379175114088
-0.00445883604186
-0.0033767939692
0.00528478264855
0.0152536702172
0.00849672508095
-3.97264145997e-05
1.65616534709e-07
2.84292862629e-06
0.00995528350507
0.0347269866805
-3.40764590581e-05
5.92627879881e-06
-5.44115690482e-05
-0.0392009957582
0.0098846421988
0.00276372999029
-0.00233068656314
-0.00235129174716
-0.00355325306632
0.00255488591109
0.00392592684548
-0.00130394165766
-0.0021580014736
0.0119205854929
0.00138822230969
-2.52271809345e-05
6.17716403997e-05
-5.19432472306e-05
0.0431769370653
0.0324996335818
0.0103729186447
-4.28294693755e-06
1.31390098996e-05
-3.69718692075e-05
0.00657184413395
2.71620749328e-05
6.36872533697e-05
-0.000130434541721
0.0351091146628
0.00281400741744
0.00509251131194
-0.0026068778906
-0.00389374933582
0.00207538470759
0.00384421745006
-0.00132125752291
0.00285233982267
-0.000216511272448
0.0124220391393
4.13563739185e-05
-4.93481840694e-06
2.15264094954e-05
-0.0124392367961
4.97202403798e-06
-0.0124187963819
0.0123963179079
-3.73949407384e-06
-3.59873918971e-06
-7.63134032844e-05
5.45277224726e-06
-0.01245915036
-3.43783515421e-05
-0.012448590368
1.56106579565e-05
0.0124425419078
2.56519441077e-05
0.012406497413
1.14498492967e-05
-0.0124574275732
-3.95253568746e-06
-0.0124373368124
0.0124243129318
2.51489757547e-05
7.35904196335e-05
-0.0124418166917
-3.4778586967e-05
-0.0124357295151
0.0124192980308
3.99185867132e-05
-6.18637865717e-05
-0.012446206546
0.0124393910675
-5.96824863234e-05
-8.8313158064e-06
1.60419764703e-05
-0.0124685465481
0.0124115780897
3.07181118088e-05
-0.0124458757344
-0.012466654668
-0.0123992425814
5.337936893e-05
7.0106007388e-05
-3.90819314047e-05
0.0123836253998
-4.25481737353e-05
0.0124088522714
4.87151751648e-05
-6.56397161315e-05
0.0124263120252
-1.98450786499e-05
-7.37663285753e-05
-3.67954068211e-05
4.63176217796e-05
0.0124311236982
-3.10007562252e-05
5.81878563352e-05
0.0124002274612
-2.47765814978e-05
0.0124124295513
-2.04021374897e-05
0.0124474114763
3.97812794507e-05
2.56459570743e-05
-0.0124576669891
-0.0124406523339
2.47239043944e-05
0.0124287949986
-7.59882510625e-05
2.25274389852e-05
-0.0124739823851
-3.37808448804e-05
-0.012472853937
4.18459513743e-05
0.0124754478161
-0.0124526639877
3.16833488554e-05
0.0124416019157
3.59424862874e-05
-0.0124764161052
0.0124527559557
2.53653633515e-05
5.73578916857e-05
-0.0124623969743
-3.68247473466e-05
-0.0124623548612
0.0124555640138
4.54213318179e-05
-4.34207271014e-05
-0.0124753965825
0.0124773825326
-3.51391150164e-05
-2.29338842692e-05
-0.0124872615918
2.78049004617e-05
0.0124474454627
-0.0124670946481
3.50744847265e-05
-0.0124905351826
-4.59144053774e-05
-0.0124325792987
4.09731911666e-05
0.0124217062602
5.12615614702e-05
0.0124201863693
3.20020540834e-05
-6.45476783889e-05
4.49530287575e-05
0.012444965745
-3.7988940757e-05
0.0124665101318
4.84053557896e-05
0.0124133150676
3.80794523279e-05
0.0124497833305
5.97262925602e-05
-5.71087610561e-05
0.0124279497723
2.98182072512e-05
6.55641527152e-05
-0.0124164307873
7.2043218342e-05
0.0124191747823
-8.88498015393e-05
-7.02410878889e-05
5.38823399267e-05
-5.71839960055e-05
-2.93639716706e-05
-0.0124571550595
8.89897029904e-05
0.0124572453115
-7.09205500026e-05
8.54536905865e-05
0.0124302233709
7.39858240344e-05
-0.0124435818437
5.44290249429e-05
3.18226869697e-05
0.0124439750343
-4.59989112159e-05
0.0124513487444
5.38730363436e-05
-3.30183481872e-05
0.0124769303374
-2.43596125965e-05
-5.36259151841e-05
0.0124791893943
5.64763347793e-05
0.0124535908891
6.59834241688e-05
0.0124724943955
0.0124538105503
6.61402612393e-05
2.47153550665e-05
-8.12853328952e-05
-0.01246253794
0.0124727132444
9.41096451264e-05
-3.07880407073e-05
-0.0124768349858
0.0124745113563
-1.97818308204e-05
-6.1912208359e-05
6.48913296397e-05
0.0124634047172
7.82215373793e-05
-0.000107745172114
-0.0124586234009
3.25339524306e-05
0.0124884008981
0.000126985930578
-8.15650836041e-05
0.0124442041977
9.31743657819e-05
-8.90901981347e-05
-0.000104465109472
-7.81893644203e-05
9.39074392346e-05
0.0124729218013
-0.00011454903146
-3.40867996236e-05
0.0124672195316
0.000101496040836
0.0124745213732
-9.44702614763e-05
-0.000121804409012
0.000107340043899
-7.67017750184e-05
0.0124913524176
0.000107929294051
-0.000126322363886
3.14505739441e-05
0.0125369600842
0.000143310416371
-9.70199821291e-05
-0.0125411051894
0.000122371046849
0.0126300283702
-0.000146928105587
-9.86147390879e-05
-5.72266263313e-05
0.000113185262263
-0.000131656674381
-0.0124973749639
-1.53610990908e-05
0.000122533235913
0.012526731985
-0.000140184808966
-0.000109931418696
0.000116233799912
0.000145148306985
0.0126072665414
-0.000108408339272
-0.0124823852774
0.000110685274955
2.14877388477e-05
0.0125111284779
-9.6050714053e-05
0.0124890478447
0.000110359633847
-3.34358693118e-05
0.0124828578996
-1.32739979478e-05
-7.98818623447e-05
0.0124915165701
8.76942237702e-05
0.0125125301482
0.000120915652944
0.0124974655711
0.000116476065304
8.54122189473e-06
0.012549905932
-0.0125435345821
-0.000119734297675
0.000119835070721
0.01258121641
-0.0125085943612
9.79784199605e-06
0.0125281504871
-9.3115819086e-06
-8.09659549785e-05
8.76510768124e-05
0.000121768880764
0.0126010578822
-3.68567163228e-05
-0.0124744063849
-5.73711650321e-06
0.012483225595
3.04111398274e-05
0.0124642113293
2.81892096913e-05
-0.0124693490345
-3.62280389972e-05
2.90794109098e-05
0.0124867269803
5.61603998898e-07
0.0125045776869
-0.0124965077652
2.32452022201e-05
0.012472060621
-0.0124730924223
2.53674316433e-05
0.0124981687566
2.98012081193e-05
-4.91182640576e-05
0.012488669852
-4.72258892942e-06
3.86581986725e-05
-0.0124798791988
5.90131219169e-05
0.0124923533843
-2.17122686595e-05
4.15220886987e-05
2.58543972136e-06
-0.0124952540001
4.65320693324e-05
0.0124890358845
4.50521983377e-05
0.0124977335864
4.2442696517e-05
0.0124964990756
3.34464473081e-05
2.30114533257e-05
-0.0124886954714
-4.03927069706e-05
-0.0125018482379
0.0125071459238
4.82775954976e-05
-2.05792147559e-05
-0.0124977049161
0.012492089082
-3.11795020716e-06