/*--------------------------------*- C++ -*----------------------------------*\
| =========                 |                                                 |
| \\      /  F ield         | OpenFOAM: The Open Source CFD Toolbox           |
|  \\    /   O peration     | Version:  v1906                                 |
|   \\  /    A nd           | Web:      www.OpenFOAM.com                      |
|    \\/     M anipulation  |                                                 |
\*---------------------------------------------------------------------------*/
FoamFile
{
    version     2.0;
    format      ascii;
    class       volScalarField;
    location    "7.85";
    object      alpha.water;
}
// * * * * * * * * * * * * * * * * * * * * * * * * * * * * * * * * * * * * * //

dimensions      [0 0 0 0 0 0 0];


internalField   nonuniform List<scalar> 
28582
(
0.999997671196
0.999997945748
0.999998117047
0.999998012535
1.00000128768
1.00000098054
0.999990784566
0.999994413897
0.0503469159476
0.0559399925614
5.13836647968e-05
0.999993163671
0.855408554987
0.859091431222
0.999998362245
0.999999814206
0.861577695272
0.99861268205
0.998596707422
0.999996411423
0.999996601888
0.999995700815
0.99999817616
0.99999688875
0.999994871842
1.0000010444
1.00000021082
0.999994515931
0.999999377866
0.0563726924089
4.24934970853e-05
-5.69949159503e-24
0.999991325939
0.999988214517
0.887422154876
0.865217209714
0.998579010743
0.999999343993
0.999999278768
0.999996257258
0.998711276962
0.868944397011
0.998713439826
0.998772400436
0.0529131010479
0.0572870916695
0.000443436019276
0.000699524040117
0.0543929257601
0.00123275031477
0.998335148147
0.998367612844
0.855552016809
0.854725210606
0.998415447348
0.85420012563
0.998348193033
0.998349798224
0.9983462724
0.856579129961
0.857544702342
0.998352555517
0.854994707538
0.998342255714
0.998444344362
0.998381938671
0.863765014826
0.860374906455
0.998380242757
0.862729067732
0.998457428521
0.998640617638
0.867749204666
0.8666631955
0.998524123671
0.865466837311
0.864439727087
0.998544007341
0.998584944546
0.865979833048
0.866364508358
0.998507246179
0.864722004617
0.998502923524
0.864104954691
0.0483916493532
0.000997231686563
0.0455485290944
0.0469496738724
0.000753505795616
0.000835213914292
0.0573052490658
0.000139216070062
0.000315453438287
0.0571245695061
0.000199517452352
0.056309742743
0.000356273921081
0.99874566219
0.999046969898
0.877629757155
0.885616979171
0.998831417053
0.99893763352
0.876099183297
0.998572875967
0.99853751539
0.870661642074
0.864116704933
0.998659784596
0.998415596639
0.869494824758
0.865281113365
0.858679722778
0.998399898094
0.998585087977
0.862012094001
0.998417301282
0.867393370912
0.998748751012
0.86904463609
0.868074445509
0.998826695727
0.869664475
0.998865898091
0.868911306573
0.998868942479
0.998850096707
0.869647018613
0.8680809826
0.998889136777
0.998837860395
0.86915523738
0.998746732254
0.998672650972
0.867607115385
0.867858976379
0.869317221465
0.998801595887
0.868695937479
0.870720917627
0.870300143665
0.998758058117
0.998806030751
0.868011148539
0.998762262655
0.869196369077
1.00000021143
0.999997596057
0.0562764665572
-3.29446886247e-29
0.999989470679
0.856636148165
0.99999458278
0.999988160869
0.867371838749
0.868664286922
0.859692419567
0.99998821435
0.999993239231
0.857437991839
0.856735127486
0.049576808425
0.0572674940642
0.0583282422496
0.000447586632111
0.000391939507386
0.000485464165125
0.0588461656105
0.0584803757297
0.998292975064
0.99827883217
0.859519857589
0.855945731158
0.998287439785
0.857809591081
0.99824849717
0.998667624023
0.998792751672
0.865379072713
0.866226120241
0.998715752381
0.998771422012
0.864431069658
0.998465318349
0.998687096402
0.86605299762
0.865836458544
0.998655158302
0.863861002552
0.998518990968
0.998244109519
0.998048028091
0.859469979486
0.862781189975
0.997979876449
0.861720856086
0.998304898428
0.99764519353
0.99780635213
0.857716200822
0.855796147129
0.997703889627
0.85654986743
0.99772430411
0.997666557608
0.99785474844
0.858030547854
0.855980838468
0.997764959947
0.85698882495
0.997751045275
0.999996779603
0.999998353122
0.999998842207
0.999998346463
0.0265654037587
0.0278559708019
0.0243888765649
0.025694658856
0.0259273241423
0
1.72853709711e-05
-1.83590854201e-27
3.09356268686e-06
-9.81108922976e-27
4.1173704453e-07
1.00000052845
1.00000019467
0.945815147839
0.94511714907
1.00000015677
0.944756175317
0.999999600742
1.00000014479
0.944800539022
0.946594244268
0.999994836114
0.999998402711
0.999996559931
0.944360335174
0.942911973299
0.946730816586
0.94540414637
0.999996488655
0.9999974519
0.942281046366
0.938758286693
0.94447671829
0.942005268715
0.999997892489
0.99999917884
0.947391686771
0.945359103555
0.944836098003
0.999999477246
0.999998747893
1.00000012031
0.94446953168
0.942931621119
0.944011496438
0.941970781254
0.943727105048
0.941586215964
0.0259486770405
0.0258947434761
0.026955212288
6.76463885733e-05
4.47273626566e-05
5.9443568855e-05
4.311209474e-05
7.64410043062e-05
0.000231020322459
7.97657413424e-05
0.000215793468701
0.0255297493747
0.02471635742
0.0273001533176
0.025218141107
0.0258132319447
5.21879009098e-05
3.17472183706e-05
2.52672164714e-05
1.02226918537e-05
0.027769770868
0.0265108118569
0.0267380038241
4.09629955101e-05
7.62245075399e-05
1.12902573581e-05
1.82121492646e-05
0.025087380048
0.0249804768482
1.60075162312e-05
6.98711163304e-06
7.45389332158e-06
0.0260987045608
0.0255880909589
0.0261929802154
6.33204217301e-06
7.42160009422e-06
6.5940229376e-06
7.4735743799e-06
0.999929950975
0.999918212399
0.946382248736
0.94498651307
0.999904780023
0.945843968221
0.999950247777
0.999935602925
0.999922275504
0.944962174384
0.945541332725
0.999899344178
0.999954650443
0.945873220322
0.99981506402
0.999860853448
0.944533132327
0.944226015191
0.999859273214
0.999807350455
0.944098217787
0.999934958383
0.999914580899
0.945135135076
0.94531148897
0.999942939371
0.999920022936
0.945747580046
0.99992746343
0.999915255573
0.94590535919
0.946630701974
0.999916330088
0.999926460362
0.945993013298
0.999815661626
0.999857457855
0.943631601979
0.9447419332
0.999769067561
0.999888342976
0.944298706862
0.999744155725
0.999725916213
0.943234244388
0.943463939358
0.999725628978
0.999704114479
0.943965605516
0.999853539882
0.999917031922
0.94573059802
0.946687075592
0.999888886982
0.999914443104
0.945532009467
0.999806226652
0.999854572955
0.944550554675
0.946264425392
0.99978348882
0.999899428345
0.94518262449
0.999705861778
0.999730001644
0.941599963779
0.942734366566
0.999733463566
0.999699893922
0.942243439224
0.999715408583
0.999763381578
0.94035396589
0.939382034902
0.999743091751
0.941024749339
0.999761775846
0.999755680278
0.99981283415
0.943666284662
0.943764438863
0.999763952959
0.999797749762
0.942959621392
0.999761539838
0.999792743288
0.940644764493
0.943188448336
0.999783853179
0.94209608124
0.999765855549
0.999889320224
0.999900995695
0.947139672163
0.948077155487
0.999903147356
0.999892577027
0.947208559616
0.999890358189
0.999876097622
0.946357044867
0.945353941156
0.999894411902
0.999889041791
0.946254882824
0.999897300848
0.999888481276
0.945046997572
0.945727337611
0.999887663294
0.999891584252
0.945999766268
0.999885825889
0.999858799259
0.943765857035
0.944456274442
0.999849570464
0.999885008135
0.943725570798
0.999890126734
0.999861694254
0.943233914667
0.942981012139
0.999850377704
0.943278375408
0.999889280455
0.999885674919
0.999886278315
0.94416422709
0.9432016453
0.999885464075
0.999883625927
0.943472264361
0.99988841091
0.999880753344
0.942480951505
0.942515784887
0.99988046148
0.94293167436
0.999895421185
0.999868593504
0.999872424139
0.942801909327
0.943005248953
0.999868061416
0.999878642264
0.942272956686
0.999859674947
0.942061233645
0.999861614582
0.999998037283
0.999998628937
0.999997873195
0.999992971619
0.999985910833
0.999984846426
0.999998095062
0.999998122163
0.999997817729
0.999990010675
0.999988421132
0.999990812358
0.999967543548
0.999987516334
0.999985275783
0.999998126157
0.999999666213
0.999997962132
0.999979751363
0.999927525135
0.999991905623
0.999988892813
0.999978483344
0.99998769809
0.999995935244
0.99998928846
0.999976459972
0.9999822961
0.999994444824
0.99999762919
0.999997849217
0.999998469339
0.999997479535
0.999990153832
0.999987289806
0.999993725379
0.999995868999
0.999998340834
0.999998817888
0.999997642606
0.999992526657
0.999987830351
0.999990148882
0.999997020464
0.999993688917
0.999987862321
0.999989242975
0.999995661134
0.999962520299
0.999984554202
1.00000451095
1.00000556493
0.999998477354
0.999882048475
0.999768903682
0.999847625003
0.999922138284
0.999981764149
0.999995889874
0.999999958375
1.00000038869
0.999994823761
0.999948348418
0.999934622432
0.999986365781
0.999994692517
0.999998001508
0.999998524741
0.999998280702
0.999996759172
0.999991022764
0.999991133988
0.99999886294
0.999998847714
0.999998823109
0.999998419462
0.999997549667
0.999996212097
0.999996032295
0.999997265487
0.999996165561
0.999993957915
0.999994587316
0.999997640437
0.999966977575
0.99999802419
1.00001771133
1.00002059613
1.00000652983
0.999943684591
0.999842548905
0.999913718299
0.999945939937
0.99998698768
1.00000727806
1.00001509677
1.00001591092
1.00000958239
0.999999829914
0.999987833505
0.999999166904
1.00000091873
1.00000328403
1.00000432786
1.00000415164
1.00000316306
1.00000198309
1.00000106901
1.00000040284
1.00000102896
1.00000124975
1.00000135813
1.00000133592
1.00000091086
1.00000059835
1.00000060955
1.0000008038
1.00000218796
1.00000244264
1.00000208342
1.00000165639
1.00000142996
1.0000014822
1.00000181765
1.00000063787
1.00000137212
1.00000244842
1.00001087126
1.00000971296
1.0000082889
1.00003110776
1.00004203107
1.0000233667
0.999987027093
0.999949403844
0.999999507076
0.999996951763
0.999995843663
0.99999571829
1
1.00000000727
0.999997006169
0.999989724553
0.999987083766
1.0000010442
1.00000159482
0.999998831295
0.999995689769
0.999994941311
0.999996903262
0.999998594986
0.999996132714
0.999991442805
0.999992112437
1.00000409165
0.99999987887
0.999995358442
0.999997971011
1.00000082558
1.00000070453
0.999996598446
0.999988782471
0.999991030129
0.999991581568
0.999993880462
0.999999259915
0.999997767723
0.999991918932
0.999990731474
0.999992810655
0.999989442285
0.999992389595
0.999996967692
0.0417528504581
0.0469565879228
0.0485623316204
0.0549872505184
0.0560301438706
0.0560353925492
0.0583111154782
0.0578897130521
0.0279270871316
0.0328118418716
0.0413473909587
0.0449555347082
0.04923503525
0.0544992525076
0.0551744356049
0.0551801578017
0.0559157750025
0.0547757416794
0.0267333978233
0.0327885271024
0.0416176210319
0.0445307963526
0.0491230897297
0.0539599876817
0.0536281495823
0.0541731592102
0.055147037546
0.0546177519446
0.0342473010029
0.0434491917982
0.045633129171
0.0484428669808
0.0511865477163
0.0516739083893
0.0540785659139
0.0554273148929
0.0555597790773
0.0481432953862
0.0504050312133
0.0520660687997
0.0520723672865
0.0553830161076
0.0559437245886
0.0552966328179
0.0580068508404
0.0568728733749
0.0551005262342
2.43415576144e-05
4.49315863531e-06
1.90349305773e-05
3.10322922244e-05
4.45093948479e-05
3.23579321632e-06
-4.09074925875e-26
-1.61230714569e-25
-3.59904598157e-25
5.07701446871e-05
2.94358481484e-05
1.91899949601e-05
4.5807403787e-05
6.15629674133e-06
-7.24538168844e-25
1.92631351835e-05
1.51647451015e-05
2.72200125381e-07
-2.48364570747e-26
3.85884868425e-05
1.40320010933e-05
1.04942953736e-05
2.32443616632e-05
6.45027577037e-06
-1.32348898009e-24
-5.73971850987e-43
2.73215268552e-05
2.27011528535e-06
2.09134338256e-27
2.66374372548e-05
1.21410858703e-05
1.31714647298e-05
1.14570906366e-06
8.27180612553e-26
-2.37331686466e-27
3.5848787621e-05
8.65436217432e-07
-3.00310625883e-27
2.6150955685e-05
3.69253934475e-05
2.99539898121e-05
6.03976112593e-05
2.9606599531e-05
-3.76984201976e-26
-8.3430914676e-27
4.67951990038e-05
-3.93887687096e-27
-4.26956834511e-26
7.289349907e-05
0.99998673461
0.999992788789
0.999991974136
0.999971082322
0.999969393169
0.999970159068
0.999972666851
0.999985718076
0.999988657036
0.999970421656
0.999958626379
0.999962167557
0.999958645974
0.999958626379
0.999990604113
0.999981128944
0.999971037956
0.999984502868
0.99998677889
0.999987541694
0.999970502569
0.999981267226
0.999982978161
0.999992737552
0.999979738053
0.999962819087
0.999980205885
0.999988717437
0.999978629823
0.999934123863
0.999968207672
0.999953839397
0.999984019601
0.999938257217
0.999976686666
0.999994007764
0.999970371286
0.999979329042
0.999991941078
0.999998783024
0.999986215599
0.999994054232
0.99995210922
0.999960912924
0.999968628541
0.99990335
0.999962162528
0.999952987481
0.999972202822
0.999980715969
0.999984911221
0.999991493784
0.999985815831
0.999991383888
0.999991597247
0.999998630578
0.999992286076
0.999968716723
0.999985239804
0.999985747509
0.999998811584
0.999992724233
0.999996860913
1.00000103036
0.99999451284
1.00000027311
0.999998027633
1.0000009254
0.99999724845
1.00000018931
0.999975921976
0.999980290265
0.999982612508
0.999977599073
0.999988668512
0.999993816661
0.99999836844
0.999997993382
0.999988959709
0.999999616902
0.999997920116
1.00000044908
1.00000298988
1.00000846969
0.999986105147
0.999993823589
0.904121672551
0.907315176129
1.00001759637
1.00000236507
1.00000367188
0.900498584855
0.872724607469
0.901410529875
0.874973729478
1.00000222759
1
1.00000004123
0.862224758602
0.847243209707
0.865312430035
0.852587778079
1.00001652615
1.00001230765
1.00002488425
0.849450501071
0.860337416046
0.853499005923
0.863195636114
1.00003742095
1.00003733002
1.00004540463
0.862246428667
0.869311743314
0.864652051732
0.870933995914
1.00003497457
1.00004323974
1.00003675074
0.870800737704
0.875654246917
0.871741307565
0.872772702227
1.00000880154
1.00002302644
1.00001226222
0.875974778669
0.867944981844
0.87360918995
0.870088988696
0.999952006804
1.0000003015
0.999985716214
0.864025251462
0.861854321255
0.86689903343
0.859331351244
0.999953319708
0.999971369529
0.999970654379
0.868410590849
0.854387986809
0.864173482116
0.857679759648
0.999998606156
1.00000048683
0.936385591765
0.924579083379
0.939771772943
0.93165277668
0.999997094396
1
0.999999895349
0.919849784508
0.90718502412
0.927756438225
0.908376420308
0.999995584661
0.999995230258
0.999992761361
0.900311491848
0.875332873896
0.898907956054
0.8719357668
0.999997499031
0.999993689524
0.99999202877
0.866486566092
0.854188777654
0.865513134153
0.857278834241
0.99999883798
1.00000032387
1.00000185329
0.854553249362
0.862593897439
0.857503539708
0.864558439866
1.00000045493
1.00000423385
1.00000501101
0.864261410618
0.870915345667
0.866200764017
0.871871534486
0.999999346568
1.0000018599
1.00000073548
0.871699936628
0.872933792699
0.873265220716
0.875616986501
0.999992584872
0.9999977065
0.999996163836
0.874145764928
0.870633795721
0.875326141493
0.868884656839
0.999988281595
0.999994713501
0.999991595145
0.867439436131
0.859134585849
0.866166183409
0.86089645046
0.999995268913
0.999992906946
0.999998339423
0.864163183263
0.859995599685
0.865497284907
0.861989832569
1.00000206699
1.00000158262
1.00000324158
0.941646122068
0.933460372929
0.941601673584
0.939629299447
0.999999768103
1.00000411574
1.0000036253
0.929205707096
0.907966081123
0.935552919266
0.90668567781
0.999995524574
0.999999741071
0.99999323784
0.897557517454
0.870500397296
0.893275880136
0.867187211466
0.999998578162
0.999996926986
0.99999581682
0.864943015379
0.859169926578
0.864370426521
0.864968111586
0.999997209436
1.00000136301
1.00000108718
0.859294851858
0.865413353873
0.865775015897
0.871239827611
0.999997960239
1.00000256055
1.00000236791
0.867117537695
0.872389403012
0.87285055707
0.877460462469
0.999996923753
1.00000082254
1.00000022864
0.874275068903
0.87596121079
0.879058458779
0.875742338849
0.999993397255
0.999997742912
0.999994187182
0.875012328314
0.867147511733
0.872926152339
0.862894141797
0.999991488476
0.999992410411
0.999992798229
0.864864312225
0.86198827052
0.861943964757
0.861709750535
0.999998839462
0.999997411067
1
0.866485170178
0.8624668067
0.865695477312
0.862113267653
0.941265815364
0.939929072858
1.00000151133
1.00000048279
0.93621387696
0.90532400103
0.899520842883
0.999995499342
0.999997762434
0.999992688444
0.891709405112
0.867126063365
0.888086099296
0.866054510262
0.999998704693
0.999996104298
0.999996709297
0.864847973457
0.865301762679
0.86402025984
0.864829054756
1.00000051625
1.00000207633
1.00000240099
0.86651611927
0.872844264188
0.867042697046
0.875060737722
1.00000053238
1.00000442662
1.00000520341
0.874475023053
0.878826515533
0.87669985688
0.879505304705
0.999998973102
1.00000293635
1
0.880173470173
0.875525697144
0.878684959965
0.870740338615
0.999991072928
0.999997355882
0.999992265411
0.872160006563
0.86315362812
0.86855623192
0.864162024261
0.99999006441
0.999992000683
0.999992581513
0.8630177169
0.86207551044
0.864503386469
0.863340330977
0.999996669292
0.999995665476
0.99999926997
0.86570739353
0.861715014953
0.866505427076
0.860424378873
0.999992031862
0.999990961174
0.86300081436
0.864647183137
0.859789414859
0.999998435277
0.99999775087
1
0.866865847563
0.874563615517
0.86214820045
0.869703659935
0.999998719259
1.00000123301
1.00000049931
0.876127795001
0.878088133362
0.871621649574
0.871789222514
0.999994606931
0.999999504155
0.99999783097
0.877341319968
0.86949228544
0.869809197222
0.863593450585
0.999990928658
0.999995226476
0.999992339742
0.867730694077
0.864079022738
0.862210660379
0.861803391104
0.999991529185
0.999994885845
0.99999691187
0.864551550923
0.862333459292
0.863006031671
0.862885357642
0.999996521431
1
1.00000000963
0.865745615515
0.859947097133
0.866635793427
0.858558086597
0.999993472237
0.861555879618
0.999989896804
0.860480145096
0.860983200361
0.999995576899
0.862319637257
0.863313194754
1
0.86694840246
0.858679426552
0.000419394434037
0.000502285516503
0.000425416527044
0.000546543784475
0.0372038743702
0.0369956915648
0.000374611753651
0.000232523227708
0.000366228984097
0.000287244670791
0.0449846648422
0.0414898905269
0.0443208141605
0.000369999027616
0.000568200927572
0.000407846533445
0.000574405148507
0.0470767147688
0.0459194065049
0.0462633902495
0.000788434634722
0.000963818079156
0.000731485367663
0.000854720206424
0.0518368736477
0.0485266230718
0.0512787378377
0.00137152200826
0.000611507309644
0.000884574100909
0.00049472549425
0.0552649065712
0.0542859656404
0.0546940535052
0.000100276468293
4.5733583113e-05
0.000233101107993
0.000108657064604
0.055810876382
0.0554996150523
0.0556829658154
1.74650369409e-05
2.11541103653e-05
2.32310892617e-05
2.27006170866e-05
0.0575051367635
0.0558732872301
0.0568038988567
4.67873692262e-05
0.000331949719565
2.65528904067e-05
0.000268572151577
0.0584348031287
0.0570598652351
0.0571859581728
0.000455328561283
0.000438905282671
0.00037408772881
0.000361887205911
0.057591696934
0.0559132907312
0.0590319600211
0.000446942939881
0.00118229705848
0.000370750819882
0.000711038033608
0.0293928978219
0.0273776106311
0.0289877743785
0.000277359557174
0.00050590673233
0.000116623838085
0.000394963400774
0.037354442203
0.0327213776825
0.0375163949834
0.000395964459975
0.000413274124666
0.000390689806882
0.000465049312028
0.0437449672065
0.0412630249391
0.0434915017247
0.000579506265116
0.000682854989555
0.00062838499635
0.000710878155153
0.0459467856484
0.0444832644419
0.0458208097461
0.000609870111969
0.000600174858029
0.000588413581605
0.00053772588967
0.0519347830792
0.0493585830814
0.0518846411595
0.000377114349137
0.000205018081995
0.000302530214882
0.00015662333283
0.054670712322
0.0546415771569
0.0547046418281
0.000357297955635
0.000299772704618
0.000238000400677
0.000227191267712
0.055183772671
0.0545213132015
0.0545310502909
0.000124393976974
5.07249644619e-05
0.000326876726149
0.000182829010192
0.0560084240266
0.0546390315835
0.0552532583066
2.77469119451e-05
0.000225808710372
0.000161839424237
0.000264334070447
0.0561501092122
0.0551884443179
0.0553292907657
0.000300311780762
0.000287869534179
0.00028093875424
0.00024873643422
0.0586328966699
0.0543067462996
0.0582583031247
0.000245532777665
0.000589345955045
0.00019310017931
0.000635993124491
0.0286408532874
0.027055198778
0.0287980024527
4.00264118597e-05
0.000287493933384
1.89885599743e-05
0.000146980823536
0.037827101593
0.0330764969826
0.0383716059826
0.000324485381992
0.000464241983218
0.000293225749513
0.000485451596098
0.0436461107334
0.0423368437033
0.0441444650114
0.000583582638091
0.000645488187189
0.000626240187852
0.000664601959149
0.046005437614
0.0447583835833
0.0460977277143
0.000562541062653
0.000482029442407
0.000537646882873
0.000468033805221
0.0515197902146
0.0485349245808
0.0504591421517
0.000240485947715
0.000108534275245
0.000245487337206
0.000119861102661
0.0542798892722
0.052431680999
0.052879031253
7.86704949275e-05
5.04043583956e-05
8.6359270539e-05
5.19189301447e-05
0.0536683551267
0.0524091293545
0.0529827699528
0.000191018328128
0.000315666780439
0.000142133098196
0.000373930412245
0.0549962113658
0.0539953767508
0.0550517573648
0.000252613108015
0.00033910485903
0.000314462895421
0.000407354936627
0.0551965955056
0.0553334794063
0.0554828194757
0.000319502748229
0.000257268348921
0.000367228386616
0.000281661938048
0.0586290306131
0.0551890539216
0.0589177910889
0.000184691803646
0.000502856257915
0.000216345335272
0.000482175029114
0.0394996924527
0.041209769109
0.000297214650885
0.000506892613186
0.000546844663408
0.0449113872308
0.0447477706905
0.0459953344244
0.000622641076223
0.000620035034863
0.000637984300066
0.000634631164614
0.0465451190684
0.046915426894
0.0477084183329
0.000483968714983
0.000418559220011
0.000515240628144
0.000457402090043
0.0495743409401
0.0491553649256
0.04980601724
0.000251925454397
0.000128887255272
0.000307576154464
0.000161660236199
0.051718036155
0.0511749493123
0.0516505285393
9.2208039623e-05
5.62275273162e-05
0.000112648912614
9.44922925907e-05
0.0525273456323
0.0519762674345
0.0527389139605
0.000188982333629
0.000484122338947
0.000342087434542
0.000669754745609
0.0552547794566
0.054410703488
0.055556754678
0.000365562727404
0.000442268350238
0.000420792054261
0.000467101278731
0.0556061602141
0.0556071179857
0.055836681814
0.000388587503759
0.000303369946162
0.000405704976918
0.000352387202903
0.0591867331282
0.0555605462893
0.0584663770299
0.000253141215351
0.000430327726773
0.000346493614841
0.000467758418732
0.0489499172277
0.0507845384947
0.000782536598255
0.000737326157557
0.0010225959135
0.00103905965841
0.0509123506036
0.0524338741238
0.0529842818795
0.000607178312635
0.000419158028733
0.000991388411181
0.000857127927746
0.0523674885859
0.0535314730228
0.0536370258326
0.000386614844827
0.000414850613825
0.00100389669218
0.00110395857146
0.0538499313662
0.0539640596251
0.0555658987285
0.000883622874277
0.000670863699766
0.000927561334401
0.000642050037869
0.0562722377405
0.0568044670049
0.0571778861233
0.000439863330779
0.000452826355496
0.000490203865545
0.000482844229782
0.056149119549
0.0563731761548
0.0562862337651
0.00040133295451
0.000364083388767
0.000415841786828
0.000373031888416
0.0573830617146
0.0550937375302
0.0563400215661
0.000417460784613
0.000678444852993
0.000466826693536
0.00112106721549
0.057441117535
0.000481945783968
0.0578682249201
0.000537455254409
0.000523675974659
0.000549395797947
0.000533139518605
0.0564732541185
0.00043248442957
0.000383799707501
0.0004357137884
0.000395052092559
0.0557916882858
0.000526307469835
0.00146285104899
0.000588870952118
0.00163194275307
0.999946215662
0.999885552839
0.904636720134
0.905363450845
0.999931447171
0.906436619327
0.999924983839
0.999921144021
0.999862455261
0.906113145103
0.910475428215
0.9998879321
0.999910708193
0.908082404512
0.999711955778
0.999818092351
0.894894759768
0.901401210287
0.999851418926
0.895527819299
0.999688704806
0.999528338969
0.999209560122
0.884940527622
0.873298085482
0.999228874103
0.885439601714
0.999504994166
0.999654048114
0.999781251645
0.901605758265
0.893994136375
0.999787685874
0.999611627574
0.895568418763
0.999492696309
0.999221861371
0.874813069112
0.884768868132
0.999245260418
0.999451783381
0.88619461087
0.998514442547
0.998851530436
0.852749810834
0.863115706736
0.998860487247
0.854088501603
0.998451641998
0.998204462006
0.998147639485
0.849153653065
0.849111528629
0.99823740464
0.850863704847
0.998094402208
0.998640032475
0.998950065094
0.86463635284
0.856030942366
0.998954186813
0.998646523627
0.855620225032
0.998301666014
0.998320629377
0.851505625437
0.853904236164
0.998309893675
0.998292267554
0.852966612372
0.998502342033
0.9982648434
0.854505033867
0.851086899885
0.998323594164
0.856132768854
0.998458025458
0.998717499665
0.998871027361
0.857777104941
0.862417627881
0.998924071628
0.859771772963
0.998713325608
0.998533602673
0.998387895971
0.852891864992
0.856962845557
0.998368912725
0.998501885076
0.857112557312
0.998752443098
0.998914741126
0.863301498529
0.860363394267
0.998954598889
0.998689367374
0.860743795621
0.998935478889
0.998891444535
0.864694734422
0.863914333166
0.99893095002
0.865904165767
0.998867030981
0.998927014683
0.998875742315
0.867188224866
0.87028772231
0.998929643854
0.868338378541
0.998874437364
0.999011960958
0.999015185569
0.864443198116
0.866747774858
0.998987389432
0.999032170812
0.86623421983
0.99904346127
0.999067400459
0.870501087159
0.86904867784
0.99906637452
0.999055873174
0.868618108598
0.998778623361
0.998840455608
0.87205780252
0.871149549773
0.998899825446
0.871890274886
0.998676995538
0.998547416455
0.998404118587
0.87343358195
0.875241961682
0.998389177977
0.873247799819
0.998461829445
0.998952446198
0.999051394257
0.871353181002
0.871617834282
0.999052532634
0.998958125602
0.871567363473
0.998722216348
0.998470856738
0.873794789823
0.871889374099
0.99845665773
0.998734380064
0.872350657654
0.998360612489
0.998410642056
0.875488065352
0.875253797307
0.998377761563
0.874639684179
0.998414604458
0.998361343794
0.998399042078
0.872587981397
0.868192510976
0.998348810302
0.871944542298
0.998402055864
0.998303710336
0.998314310056
0.874677385466
0.874177100223
0.998336192348
0.998256203285
0.874875779905
0.998282294584
0.998063662943
0.869493092712
0.872405894531
0.998225414122
0.998172775651
0.873010454301
0.9984826087
0.9984896491
0.860536393295
0.864823212649
0.998394317259
0.862138523061
0.99859160101
0.998585134918
0.998644752492
0.86086428282
0.861857007134
0.998580757877
0.861268648673
0.998649087131
0.998259706675
0.998039995591
0.865825356954
0.863883651644
0.998218982609
0.998088813045
0.862895296532
0.9982732784
0.998124042442
0.859570113794
0.861196860175
0.998253613482
0.998122619087
0.860386568781
0.998301750007
0.998599605611
0.866278393313
0.867947552332
0.998543459101
0.865863084558
0.998353338674
0.997345391729
0.997755387892
0.839348833409
0.854656921246
0.839405155687
0.997759292221
0.997287674524
0.997772421655
0.998030362232
0.864698504842
0.862545274568
0.998141310449
0.997671741071
0.862594335132
0.996753884102
0.997319122579
0.856015380603
0.837512077202
0.996706935539
0.83631243872
0.997352096174
0.999793275102
0.999787565821
0.933134007211
0.937153673524
0.99981343111
0.934032177596
0.999798527753
0.999788072929
0.999795053356
0.929144583911
0.92682370183
0.999812052286
0.999772577548
0.930386112823
0.999780696698
0.999793615559
0.938324003131
0.937178841811
0.999794539396
0.935189049126
0.999776159535
0.999759028665
0.999777133827
0.928807202476
0.934673046441
0.999734822271
0.999788110222
0.931988516406
0.999716346012
0.999757589593
0.916046183501
0.923092842231
0.999725280145
0.999745098526
0.919278788655
0.999634574046
0.999641486784
0.911822521463
0.907267233334
0.999707157123
0.999547838735
0.913527506989
0.999625489083
0.999728611538
0.925154679887
0.923183910686
0.999702450352
0.999679034908
0.921248190171
0.999540603725
0.999501650026
0.90754985343
0.916255621031
0.999464656059
0.999603848698
0.914714179441
0.999291475637
0.999531435848
0.892473826343
0.899782640383
0.999354352992
0.999430460695
0.891776754098
0.999143229052
0.998997885449
0.88408773918
0.874277061464
0.999191069036
0.998940031928
0.883278817788
0.999251501149
0.999406596726
0.899351709476
0.888952715789
0.999373320865
0.999262517085
0.891050153521
0.999120728759
0.998919322656
0.873586399814
0.880036168852
0.998939493479
0.999107255517
0.882647738783
0.998554963122
0.998778871721
0.857608349414
0.86573116877
0.998562331168
0.998733653059
0.858129407314
0.998364522123
0.998249737528
0.855660315305
0.85487037313
0.998315110933
0.998271923709
0.857153105261
0.99864615901
0.998748864343
0.865669492086
0.858837676792
0.998762293218
0.99863908488
0.858896109612
0.998501746087
0.998568566993
0.856244345552
0.858497037959
0.998501473361
0.998540947361
0.858197157362
0.998324686498
0.998270047543
0.856773545796
0.85488848417
0.998344741357
0.998272215552
0.856791443055
0.99841916003
0.998711088165
0.859805402007
0.86283207329
0.99851082057
0.998585192171
0.859903393994
0.998432092831
0.998550727858
0.856259318728
0.858820052994
0.998448993683
0.998479635367
0.857613667799
0.998452355169
0.998510156867
0.863402770029
0.861269284093
0.998541172456
0.998469110077
0.860452433707
0.998720137632
0.998802764016
0.866431962264
0.864250654756
0.998821707383
0.998678701754
0.866265075043
0.998738158827
0.998857260617
0.868895214875
0.871145683062
0.99884464378
0.998775568432
0.868784508401
0.998610860673
0.998565776855
0.864692049399
0.867686933739
0.998600315335
0.998587661044
0.866334639974
0.998618011811
0.998638365237
0.871125893486
0.869567251005
0.9986454064
0.998597810613
0.868696433401
0.998749265128
0.99884698143
0.871472683943
0.872177948274
0.998783728332
0.99878143879
0.872191536556
0.998669689826
0.998491639794
0.871797318167
0.87360074306
0.998640487559
0.998560802578
0.872559938256
0.998700793725
0.998718807856
0.872285329056
0.873894597153
0.998688075878
0.998769791005
0.872552909049
0.998699406215
0.998822281635
0.874178874845
0.874562925156
0.998714731306
0.998775264043
0.873051704631
0.998304128277
0.998383728158
0.874890255299
0.874764155979
0.998219541019
0.998453908728
0.875057016771