/*--------------------------------*- C++ -*----------------------------------*\
| =========                 |                                                 |
| \\      /  F ield         | OpenFOAM: The Open Source CFD Toolbox           |
|  \\    /   O peration     | Version:  v1906                                 |
|   \\  /    A nd           | Web:      www.OpenFOAM.com                      |
|    \\/     M anipulation  |                                                 |
\*---------------------------------------------------------------------------*/
FoamFile
{
    version     2.0;
    format      ascii;
    class       volVectorField;
    location    "7.85";
    object      U;
}
// * * * * * * * * * * * * * * * * * * * * * * * * * * * * * * * * * * * * * //

dimensions      [0 1 -1 0 0 0 0];


internalField   nonuniform List<vector> 
28582
(
(0.815020832095 0.00318777570883 -0.000460357118769)
(0.815983337286 0.00145418566749 -0.000215114654591)
(0.815819700697 0.0034693449499 3.69422102789e-07)
(0.816165048947 0.00177885505714 0.000560646207421)
(0.817444140013 0.00426901069646 -0.000137383357743)
(0.816529834186 0.00238527111378 0.00101710344289)
(0.820719853246 0.00750527413835 -5.70899262389e-05)
(0.818925101446 0.00490859588853 0.00348701911981)
(-0.22031397586 -0.107904870453 0.0106757058512)
(-0.114059496124 -0.0964063365301 0.00747238840703)
(-0.596501600977 -0.146918424088 0.5906784348)
(0.819845571861 0.00628799863375 0.00302656397102)
(0.780457458099 -0.000481110011601 -0.00452851655878)
(0.775280631511 -0.00259945545676 0.00191696077708)
(0.816342342743 0.00310509771851 0.00342538056274)
(0.814669895789 0.00295231459389 0.00483131255253)
(0.773020580629 -0.00408748312867 0.00262688515817)
(0.812255561039 0.00459386107791 0.00598863193863)
(0.811355269744 0.004896702909 0.00705275040193)
(0.814152174621 0.00612017950419 -0.00102659712568)
(0.81636241258 -0.000943761390854 -0.000269607915994)
(0.815186629853 -0.00172727694049 -0.00051463247499)
(0.814725967077 0.0063101512181 -0.00215020344376)
(0.816176145612 -0.000679299371321 0.000442464904799)
(0.815032656982 -0.00177645007911 -9.20363190605e-05)
(0.816302973082 0.00709362850256 -0.0053057687814)
(0.815604310692 -0.000289836618615 0.000296177401175)
(0.817656590358 0.0082225449653 -0.0097654528323)
(0.816066784397 0.00208493071033 0.000804799907501)
(-0.126185192838 -0.0669448756409 -0.00837497722798)
(0.377823859139 0.63195731906 0.278494289505)
(-0.396848777071 -0.267194674627 -0.425065402503)
(0.822945026934 0.00641024313406 -0.00736954293422)
(0.821609009149 0.00774042124057 -0.00607301342065)
(0.777182001572 0.00534568830877 -0.0156961025476)
(0.779160374961 0.00488181784576 -0.0109088194121)
(0.822021290149 0.0102514087734 -0.0134486597796)
(0.814368035723 0.000570080220607 -0.00112011653357)
(0.814383333742 0.00227947233199 0.00232315650775)
(0.812578292043 0.000672392939612 -0.000109334615654)
(0.811244084797 0.00331415817894 0.00462236737059)
(0.772762229239 -0.00925839203335 -0.0013630960639)
(0.810191740089 0.00383868865486 0.00547034836905)
(0.807980639299 0.00159820569099 0.00387355766165)
(-0.204853752498 -0.136207425719 0.0199535913859)
(0.00351459163908 -0.0933043091956 0.00933253057899)
(-0.176217709353 -0.021551053752 -0.173091807962)
(-0.210246663668 0.0761169429586 -0.0810952338273)
(-0.147570897384 -0.124291555869 0.0158126203438)
(-0.121633502512 0.112688102285 -0.202022113658)
(0.823029860573 0.00982265185862 -0.00430744013398)
(0.821893809352 0.00946192730907 0.00396860263193)
(0.779082783176 -0.000789748425517 -0.00135816382033)
(0.779727650282 0.000398911315644 -0.00158086004341)
(0.822743142911 0.0095866867685 -0.00179473241101)
(0.777322515438 -0.000483158538251 0.00217278720023)
(0.822408960737 0.00951516433581 0.00123021647183)
(0.819907301341 0.00863356295482 0.00474545389481)
(0.818857026283 0.00794303106872 0.00499335334902)
(0.777761595528 -0.00204589484517 0.000970711033764)
(0.773948992874 -0.00283047772322 0.00532372459941)
(0.818023946393 0.00789969525566 0.00747979281454)
(0.776327022194 -0.00201282991464 0.00398876968447)
(0.820654958633 0.008565127954 0.00210983122406)
(0.814795601961 0.00578079254666 0.00760145552855)
(0.817588173717 0.00700523610367 0.00424460969963)
(0.771784966216 -0.00528444249336 0.00312645402093)
(0.771558617515 -0.00358509174796 0.00568462079783)
(0.816724099581 0.00708545344126 0.00657764649898)
(0.770306940735 -0.00467085944922 0.0060839500788)
(0.815814989261 0.00579064575359 0.00545067828752)
(0.813190727864 0.00442900642526 0.00423088235055)
(0.769046392695 -0.00760757189004 0.0026399136188)
(0.767878239641 -0.00613331594306 0.00500854036382)
(0.81393872352 0.00528191243574 0.00640918862164)
(0.769936597568 -0.00650761707956 0.00305801722442)
(0.76872011924 -0.00533234463558 0.00597077906763)
(0.814746743321 0.00531562671397 0.00434405803104)
(0.810712954499 0.00444956749882 0.00931068700738)
(0.767818080696 -0.00501282970836 0.00456773861543)
(0.767421782399 -0.00303139233662 0.00812849792551)
(0.813111017155 0.00529791254106 0.00750891344535)
(0.767440052162 -0.002890666293 0.0086224165691)
(0.812615414704 0.00481776949021 0.00937910737178)
(0.768259135953 -0.00466777574561 0.00564222620985)
(-0.180135962004 -0.0376559066319 -0.0104222157269)
(-0.0142797233645 0.208614003209 0.108327541047)
(-0.128648789218 0.00204300686689 -0.0221627503619)
(-0.230704117087 -0.0117140326618 -0.009140471522)
(-0.00629744837303 0.171072094251 0.145386999533)
(-0.0853682261023 0.219017958628 0.11404355489)
(0.0369189707585 -0.107291218692 -0.002789830872)
(-0.251010237668 -0.0134614016201 -0.0171623861069)
(-0.23728484461 -0.0419011696821 0.0705775190459)
(0.0681327554288 -0.116091747343 -0.00912080843207)
(-0.207876428411 -0.0196439977116 0.0223478910867)
(-0.0974897641662 -0.0672156015417 -0.0125699194509)
(-0.137202820493 -0.0503641733801 0.086690217813)
(0.82135691992 0.00865051311978 -0.0191148352792)
(0.817761821766 0.00831187181511 -0.0195384854095)
(0.77794226953 0.00518895215605 -0.0148993849267)
(0.776603321946 0.00223457750637 -0.0150600798588)
(0.822161873382 0.00745935735816 -0.0195087471454)
(0.817190931428 0.00922197509216 -0.0189364128924)
(0.7772751578 0.00243994439753 -0.0147310061702)
(0.822754880621 0.00789582455569 -0.0161203746451)
(0.826152038944 0.00604649501144 -0.0134080419562)
(0.779600483479 0.00469259042991 -0.0134139180241)
(0.778381989675 0.00267079350491 -0.011467008396)
(0.823677623368 0.00652523151593 -0.0158744938437)
(0.825369385232 0.00753205588805 -0.0135342122855)
(0.7785834586 0.00227695405015 -0.013725097704)
(0.778498381521 -0.000300795263456 -0.011611928987)
(0.778428263223 -0.000100214497014 -0.00913851713746)
(0.824424995137 0.0100103252498 -0.0101622315351)
(0.82224795624 0.00938988425147 -0.0145512893148)
(0.778982932995 0.000629722241363 -0.0104403015201)
(0.824919708772 0.00914005557662 -0.0118245207434)
(0.778767014718 0.000349535888866 -0.0126541113817)
(0.812349012765 0.00329710366306 0.00298473314143)
(0.768864228343 -0.00866770614947 0.00228104698044)
(0.768048347521 -0.00651122924849 0.00408946509362)
(0.810903879698 0.00246532194066 0.00231518270946)
(0.769693298033 -0.00926338303515 0.00127930748654)
(0.811901815248 0.00266623799683 0.000956666775349)
(0.769210622751 -0.0065600799931 0.00273516345502)
(0.810550837555 0.00132660198674 0.00136001000048)
(0.811596251857 0.00102924841524 -0.00230128481117)
(0.770889484441 -0.0096190339455 0.00021071390427)
(0.772543125919 -0.00674188786751 -0.000441892406894)
(0.811525599968 0.00175892390871 0.000147540235343)
(0.810466889222 0.000430649931366 -0.00145336072907)
(0.770663515594 -0.00687951798029 0.00172994514424)
(0.808723907573 0.00298569582638 0.00527924043839)
(0.809302240822 0.00353624877553 0.00752362800525)
(0.768109660718 -0.00519955657386 0.0037360554211)
(0.767710513739 -0.00345939538732 0.00723310584755)
(0.768656524346 -0.0035023057329 0.00559513737624)
(0.809698244544 0.00299992432044 0.00337747141741)
(0.768919672267 -0.00521312326507 0.00225928260066)
(0.770268407473 -0.00398055403494 0.00439398161314)
(0.772466342527 -0.00441142685586 0.00126707766041)
(0.807762326376 0.000607005992416 0.000117888177317)
(0.809217691546 0.00178418236684 0.00219603215766)
(0.772605764354 -0.00591568864609 -0.00129201504493)
(0.808999852413 0.000810320860203 -0.00114128978536)
(0.770583934592 -0.0055893653431 0.00134536977552)
(0.814929718647 -0.00210984118364 -0.0013648931242)
(0.813936172015 -0.0012843631132 -0.00243504814443)
(-0.0877598419461 -0.0641781682992 -0.011268623377)
(-0.094658296044 -0.181638593795 -0.46604013792)
(0.821721002318 0.00680683039852 -0.00228155537159)
(0.77968814606 0.000281469498183 -0.00712362939325)
(0.812046802089 -0.00121657027468 -0.00244516200366)
(0.812776002906 -0.00302177481749 -0.00365835127162)
(0.774041526436 -0.00902228948038 -0.00228519869817)
(0.774001347769 -0.00542643020426 -0.00122332876835)
(0.775049517526 -0.00742197802453 -0.00655096284261)
(0.813630507511 -0.00361585348101 -0.00315815563203)
(0.815472189748 -0.0041593930146 -0.00167508440236)
(0.774472936956 -0.00833769776395 -0.00737158323828)
(0.770652753458 -0.0105739653781 -0.00544227936234)
(-0.222295841763 -0.104549732051 0.00683633136624)
(0.0433370090531 -0.116275150929 -0.0098093551762)
(0.0352200702868 -0.110238549436 -0.00701305874956)
(-0.0781431086208 -0.0371527190351 0.0937353248977)
(-0.135821192954 0.00779055744675 0.0641299101693)
(-0.090564095357 -0.0101097363618 0.110768467002)
(-0.00589878264718 -0.0869250020117 -0.00215701477537)
(-0.0588725996684 -0.0547822269024 0.00278139772887)
(0.823837865665 0.00758174628943 -0.0036892974957)
(0.823628877716 0.00924602148446 -0.00776189909667)
(0.780243204896 0.000788499186734 -0.00849557142511)
(0.778506708249 0.000542231197387 -0.00398964776993)
(0.824488362634 0.008233704632 -0.00886268418889)
(0.779239701738 0.00110011694821 -0.00540620692052)
(0.822887423831 0.00862794307243 -0.00221688088508)
(0.811195479794 -0.00248768661972 -0.0031830527545)
(0.811948445486 -5.42923573165e-05 -0.00216170662979)
(0.774047358606 -0.00841297972668 -0.00213082426798)
(0.773622227224 -0.00690919918463 -0.00158196352665)
(0.812528545386 -0.00137269057128 -0.00317330669821)
(0.810741097379 -0.000997981620629 -0.00149610276303)
(0.773702271989 -0.00635147554194 -0.00200044657499)
(0.809707199116 -0.00218867033165 -0.0041024291313)
(0.807911123438 -0.000488541578912 -0.00123689444094)
(0.773918449908 -0.00638070541058 -0.00265703418706)
(0.774758911721 -0.00590458442285 -0.00336304364023)
(0.809221625682 -0.00072234889615 -0.00169025818458)
(0.77418717415 -0.0062040046695 -0.00416806715941)
(0.808454761209 -0.00185797749479 -0.00451363295191)
(0.810285122577 -0.00341037727411 -0.00440974976669)
(0.810876983557 -0.00359203945167 -0.00735479670442)
(0.774675719505 -0.00618163419472 -0.00594278864035)
(0.775197018427 -0.0066523909386 -0.00539275020938)
(0.811454866287 -0.00443352546737 -0.00597807745461)
(0.774425335048 -0.00618717189989 -0.00530101728314)
(0.809199501784 -0.00264185166674 -0.00526824943542)
(0.813032976152 -0.00505767260466 -0.00608497189141)
(0.811918885478 -0.00400271470551 -0.00745617666547)
(0.774291685002 -0.00662731650399 -0.00651421588803)
(0.773066372206 -0.00926377869317 -0.00693811642762)
(0.812180543591 -0.00494792617304 -0.00600749579886)
(0.773420607947 -0.00696144887304 -0.00593930974056)
(0.812974156693 -0.00402070489728 -0.00767725506597)
(0.81362141798 -0.00503981148165 -0.00585463324835)
(0.814764068938 -0.00386992003656 -0.0057646722595)
(0.771093572708 -0.0083910162784 -0.00513229619944)
(0.772056083823 -0.00997446366577 -0.00670401020223)
(0.814509319955 -0.00496477047165 -0.00527348187774)
(0.772528374846 -0.00760992098784 -0.00602524412321)
(0.813936988094 -0.00401362079004 -0.00686884968848)
(0.791988338888 0.0105247374651 0.00224770843423)
(0.79836624273 0.0111584786146 -0.000331424434092)
(0.800562380563 0.0164838739429 -0.00125401049828)
(0.802236035613 0.0102302373886 -0.00176607124197)
(0.208564786877 0.0889146175868 0.00396977506264)
(0.345176465295 0.0975228949212 0.00248376584444)
(0.233763814862 0.0309766661066 0.00126761058147)
(0.416218501534 0.0607235562134 0.00112591988682)
(0.396891900122 0.0589832196478 -0.000241918902323)
(0.258089096531 -0.00892916245271 -0.335138190307)
(0.35658166824 -0.054146493132 0.464004051568)
(0.172308583297 -0.0400664893353 -0.28646929028)
(0.430782970803 -0.165121629205 0.0498611687845)
(0.130141786153 -0.0217890447712 -0.257642460377)
(0.36183338774 -0.0723523686678 -0.133019920663)
(0.78988523998 0.00255828551121 0.00168452999166)
(0.79098146291 0.00497791784271 0.00203659715281)
(0.783675097294 -0.000149391196538 0.00254381325508)
(0.784628975817 0.00389568944161 0.00224729319535)
(0.788258703493 0.0075109899838 0.00437622387065)
(0.78459198933 0.00438053194512 0.00213984659325)
(0.793029668395 0.0068353793558 0.00259946295221)
(0.795589961288 0.00855548860912 0.00202291873832)
(0.785260734508 0.00450477817452 0.00231312499731)
(0.787019189737 0.00606004035663 0.000490820276219)
(0.791121860181 0.0140859131525 0.00463927008737)
(0.795532576288 0.0110641406429 0.00112957257721)
(0.795537466124 0.0150680886416 0.00169500297456)
(0.785361750381 0.00526672491339 0.00242103918244)
(0.782801549876 0.00885623253114 0.000921195328436)
(0.787436101304 0.00660942854434 6.85249840714e-05)
(0.78704103462 0.00767918728652 -0.000231810225305)
(0.797862199837 0.0190461123576 0.00137718097346)
(0.799915000608 0.0229346080953 0.00254637739891)
(0.78174925233 0.0109759844502 0.000930455667912)
(0.783522935493 0.0159003545901 -0.0010957736937)
(0.786543817168 0.00811487321823 -6.8217413877e-05)
(0.785622223491 0.00967693924138 -0.00161751622771)
(0.798755843229 0.0137792821528 0.000192873379022)
(0.800624681066 0.0114674518019 -0.000215991122427)
(0.787836880033 0.00586856221775 -0.000267354159258)
(0.787369594166 0.00660927498481 0.000607564059771)
(0.788513950779 0.007046721036 0.00182315783104)
(0.802311964824 0.018342537636 -0.000829397632066)
(0.801749366286 0.0132373137178 -0.00136093808176)
(0.803136007753 0.0139412461896 -0.0013277717971)
(0.786920080353 0.00686380373059 0.000939814764936)
(0.785928869661 0.00871097172701 0.000283988162477)
(0.788301570839 0.00745813799392 0.00257475818136)
(0.787097002936 0.0083876066253 0.00274141943931)
(0.788667002623 0.00776545101247 0.00227117133454)
(0.78709436758 0.00909581291055 0.00235582132227)
(0.172330614469 -0.0479919692597 0.00120138464465)
(0.176123945479 0.0148684288682 0.00149772983363)
(0.243971310002 0.0305625013598 0.00610041368037)
(0.205245642185 -0.0444772543265 -0.288242632748)
(0.312586589929 -0.0101690941242 -0.339960660165)
(0.217556358517 -0.0359957830583 -0.236049907523)
(0.339120491298 -0.0141823189321 -0.283420793737)
(0.309895039943 0.0307939553168 -0.281311511381)
(0.16695621586 0.0531058670669 -0.0646024545292)
(0.339839613687 -0.0187434675877 -0.218654369044)
(0.227547581647 -0.00458755880391 -0.0656324694915)
(0.136495156907 0.0620930109457 0.000882327468229)
(0.118637552289 0.0531212793535 -0.00051855093189)
(0.301282465033 0.111835853796 0.00647258800575)
(0.199125617345 0.0747992572085 0.00280945418238)
(0.303449904364 0.0896653431239 0.00456234716903)
(0.197809034374 -0.0471840314013 -0.180068258903)
(0.296777335463 -0.0340253187524 -0.169343395069)
(0.187198743517 -0.0419955659559 -0.0758971645875)
(0.286051102708 -0.0210941490636 -0.103932919685)
(0.359515823687 0.0638564394078 -0.00149805572145)
(0.399452397412 0.0880485417714 0.005159567937)
(0.447439771748 0.0689800872843 0.000249921543319)
(0.326758920347 -0.0510177544276 -0.0991615769027)
(0.285894749747 -0.0328277540934 -0.00661257408139)
(0.31756164201 -0.0372009490535 -0.0974170174915)
(0.301056186751 -0.0520107070995 0.0213832422216)
(0.324351897566 0.048183058919 0.00213556175409)
(0.335966315983 0.0341964462539 0.000921730548697)
(0.172429264499 -0.0336219661511 -0.0894465748855)
(0.23805430971 -0.0287630303917 -0.118516070009)
(0.23131375082 -0.0163051159003 -0.148771456189)
(0.474922496731 0.0498981308972 0.000546115413552)
(0.418235297162 0.0470749063054 -0.000200156337398)
(0.473040216421 0.0388547749469 -0.000503477390735)
(0.314035620762 -0.0487262521091 -0.0958880774693)
(0.319734924825 -0.0525463490016 -0.0297849474246)
(0.318130654469 -0.0285937470988 -0.129129532504)
(0.337801115478 -0.0265432495086 -0.0782318540712)
(0.795368368355 0.0031430833491 0.00440985968925)
(0.79389693871 0.00273365128868 0.00418879593793)
(0.783470650488 -1.4780832725e-05 0.0024579557822)
(0.783630939086 0.00172242694369 0.00320637614777)
(0.794229199145 0.00375064371426 0.00468089052573)
(0.783475190741 0.00154761740144 0.00309237816133)
(0.794949842959 0.00259177275211 0.00379320719303)
(0.795888872244 0.00389243664066 0.00453445195972)
(0.795421520365 0.00546000547034 0.00448133250311)
(0.783992451248 0.00236513128151 0.00298467908587)
(0.784082988913 0.00332605792848 0.00269801329477)
(0.794797594688 0.00477417666176 0.00472100844329)
(0.796432429893 0.00486186138579 0.00383225473228)
(0.783726673247 0.00218524744601 0.00297853461663)
(0.792324545854 0.00669687495061 0.00531986290065)
(0.794024084591 0.00676406039074 0.0041391388106)
(0.783903574617 0.00270850536842 0.00290768763983)
(0.784054846267 0.00529798007838 0.00187909532508)
(0.792981541314 0.00509940548984 0.00533675422441)
(0.793644154438 0.00805469450106 0.00546751124482)
(0.783105678883 0.00316446548329 0.00241820552321)
(0.7984053537 0.00566085536434 0.002806885501)
(0.796341601007 0.0064049582467 0.00412778732848)
(0.784559457508 0.00382032733065 0.00281139837432)
(0.786072409507 0.00562265491207 0.00207517719093)
(0.797518683056 0.00541778519826 0.00351804995692)
(0.797499617761 0.00686086849246 0.0038266980583)
(0.785138539893 0.00478305656943 0.00213146514029)
(0.799334879702 0.00639431359656 0.0014234367992)
(0.799754278292 0.00820757103526 0.00133963403354)
(0.786461023701 0.00555567260526 0.000792680483)
(0.786052504341 0.00532059139851 0.00056190511326)
(0.798603605474 0.00760291837197 0.00209064193257)
(0.800257733988 0.00704982916006 0.000909668693167)
(0.785464926358 0.00491475980701 0.000855339575248)
(0.796041554749 0.00973816125251 0.00350583524428)
(0.795462880382 0.00771155740485 0.00375050627678)
(0.785171112329 0.00584710531286 0.00179304635298)
(0.786261614997 0.00651109244379 0.00195083959587)
(0.794711679275 0.00931230850399 0.00421195198997)
(0.796762740648 0.0081341794626 0.00305841033672)
(0.786339900354 0.00712383936835 0.00107955273753)
(0.795923408932 0.0114073188884 0.00212731535984)
(0.794305423583 0.0121290114993 0.00333073159097)
(0.784013754019 0.00717436448598 0.00136539635076)
(0.784488610709 0.00916944183313 -0.000475078098454)
(0.79450385552 0.0106175335406 0.00318504491569)
(0.795843240222 0.0133846701969 0.00227336522479)
(0.785328085148 0.00801816032302 0.000525297487169)
(0.7977313209 0.010567382345 0.00126515464664)
(0.799593682567 0.00947045386266 0.000330371203224)
(0.786875047907 0.00629712997065 0.000676396693233)
(0.787548739689 0.0070665589629 -0.000157055992558)
(0.798296714268 0.00883864746237 0.0012242364813)
(0.799525232694 0.0111641741743 0.000655662117264)
(0.786859884998 0.00681519422058 8.02387628246e-05)
(0.798087783831 0.0123943325782 0.000253476911477)
(0.799824555933 0.0147650937487 0.000420408781991)
(0.785914501429 0.00830921740479 -0.00068293832845)
(0.787382844579 0.00743637315852 -0.000203726708799)
(0.797977069095 0.0144947026163 -3.20310492665e-06)
(0.799720503513 0.0128171164702 0.000107966025422)
(0.786527749133 0.00744756594744 -0.000216363339161)
(0.797667442557 0.0174525430472 0.00126022723035)
(0.794699715473 0.013713529879 0.00259945518834)
(0.781799851857 0.0130114801349 0.000378886059049)
(0.78352047482 0.0105995826689 -0.000359464283268)
(0.795193389232 0.0162566130682 0.00277808288799)
(0.796785106381 0.0152601841657 0.00103776348032)
(0.783307517289 0.0122275883306 -0.00108492179496)
(0.799364908862 0.0196344733307 -0.000708490365488)
(0.79951952557 0.020732981299 0.00248924131726)
(0.782590678925 0.0147961773155 -0.000608882608586)
(0.784041245955 0.0140810549848 -0.00180814761985)
(0.797004064239 0.0185689885773 0.00106646985581)
(0.783512495265 0.013201160537 -0.00144553932358)
(0.80167271296 0.0212454229895 0.0007717926881)
(0.799536343677 0.0181259015852 -0.000924488183519)
(0.800441577385 0.0165041907056 -0.000236603758981)
(0.785231114372 0.00950686505011 -0.000770194582302)
(0.785970717776 0.00860065572342 -0.000548858720799)
(0.798767351231 0.0164077556407 -0.00076046252017)
(0.801109264559 0.0179861618632 -0.000256400533118)
(0.784771100929 0.0107728618731 -0.00129138750279)
(0.801033617098 0.0198259449973 -0.00245179915907)
(0.803876815373 0.0203523051312 -0.00167940102002)
(0.784909678419 0.0123986295264 -0.00234423771073)
(0.785528097442 0.00916341420322 -0.000768189746059)
(0.802323119341 0.0195359007772 -0.00181897317746)
(0.78460819446 0.0117862783449 -0.00145916439699)
(0.802997880252 0.0210279621258 -0.0020368291744)
(0.80229577501 0.0112937916533 0.000668105820508)
(0.800829590255 0.010072977625 -0.000301749650733)
(0.787886684382 0.00607489933988 -0.000217080832846)
(0.788357384039 0.00612202507443 0.000324414617262)
(0.801032117707 0.0115091303896 0.000200048982621)
(0.801997068232 0.0101049966419 4.0420348212e-06)
(0.788336238478 0.00638154780093 0.000454266868925)
(0.802596653608 0.0124771978528 0.000330724286001)
(0.80162954176 0.0146309372826 0.000415979397863)
(0.787626943203 0.00622361210972 0.000195446350138)
(0.787906045001 0.00695014459562 0.00129132224029)
(0.801352737894 0.0129718513406 5.15369714483e-05)
(0.802938969655 0.0136928920768 0.00102743929049)
(0.788044218223 0.00656840217989 0.00072724629509)
(0.803543535123 0.0114914806864 0.000647414254862)
(0.80460165619 0.0109429527323 0.00121320902632)
(0.788141931531 0.00647798761208 0.00173980632972)
(0.78879016175 0.00642063067321 0.00139053934763)
(0.803895588663 0.0123031595003 0.00131450831508)
(0.80421007128 0.010395704354 0.00064450971372)
(0.788473524925 0.00595924858258 0.00120830225396)
(0.803541670917 0.0158055838179 0.00078039083406)
(0.802062758189 0.0161469608187 6.19918616782e-05)
(0.786811826314 0.00757270882281 0.000964359017812)
(0.787617811679 0.00713635200641 0.00178142566946)
(0.802618697963 0.0173860893429 4.22268775572e-05)
(0.803187375747 0.0149080962122 0.000630325219645)
(0.787295134937 0.0075616139992 0.00189589639648)
(0.803956946945 0.0167942387418 -3.17833743583e-05)
(0.804599931935 0.0189605999423 -0.00113041740452)
(0.78611045582 0.00795947932322 0.000968996140834)
(0.786246347089 0.00841961487981 0.00145814510621)
(0.803392952755 0.0186626215559 -0.000962089430743)
(0.786898750357 0.00778510459319 0.00182121275181)
(0.804888452048 0.0168647260167 -0.000279614794436)
(0.804240978036 0.0139509250494 0.00135386986298)
(0.80473071001 0.0116132024387 0.00120593998821)
(0.787890445899 0.00688304392768 0.00230685653339)
(0.788126238709 0.00799658329831 0.00290958450903)
(0.804033133476 0.0132438168105 0.0011802675871)
(0.804809692424 0.0122005447072 0.00154835024477)
(0.787730535332 0.00743771169329 0.00250358349202)
(0.804391977219 0.0148838485691 0.000843094383292)
(0.805004613749 0.0128727092867 0.000812046024952)
(0.786797112886 0.00852418807442 0.0022977176791)
(0.787721346986 0.0081252997737 0.00306577715453)
(0.804726883955 0.0128195707052 0.00116951279913)
(0.787474026817 0.00790791272962 0.00256636941846)
(0.804948056066 0.0148753215299 0.000392560503354)
(0.805216646055 0.00865797562164 0.000339660167155)
(0.805025855386 0.00987478715253 0.00108662457518)
(0.788362458765 0.00843027512954 0.00266339562858)
(0.788824676351 0.00821738436913 0.00153089186369)
(0.805017557609 0.0102921841599 0.00137625662695)
(0.805204854356 0.00838987352942 0.000252469590217)
(0.788370759491 0.00885986674205 0.00165345808152)
(0.804982431542 0.0108073883731 0.000634618594129)
(0.787853127652 0.00874993785385 0.0026600289703)
(0.804889317189 0.0106553740716 0.00108470802109)
(0.817160656359 0.00350144899341 -0.000742795781448)
(0.818269890708 0.00145513550549 -0.000455471738953)
(0.818280934173 -0.000757729661684 -0.000392625641959)
(0.815074530337 -0.00358561438393 -0.000405094063688)
(0.810267215748 -0.00494757018942 -0.000150027075565)
(0.825402896395 -0.044736399322 9.83727512628e-05)
(0.817927148604 0.00362647682229 -0.000809227234895)
(0.818530836709 0.00165435222105 0.000208312353318)
(0.818382842635 -0.00026068195241 0.000184416804372)
(0.815307267204 -0.00376677049896 0.000408590627805)
(0.810832088279 -0.0053959353583 0.00201655646166)
(0.8270527056 -0.0470192240959 0.00278064306104)
(0.816489589441 0.00581948772172 -0.000619027889348)
(0.813107601705 0.00584711205293 0.000439456387386)
(0.790930277225 0.00999212812737 0.00237095687681)
(0.787362093743 0.0100126569983 0.00145384971514)
(0.78458331601 0.0113844554129 0.00260355557426)
(0.779646817077 0.0094727943824 0.00602628275331)
(0.784415094193 0.00944885286601 0.00314593057082)
(0.737953513846 -0.0295444300226 0.0269785204657)
(0.826183214168 0.00454495542098 0.000330187706492)
(0.824059182158 0.00263947804672 9.789405518e-05)
(0.821230337777 -0.000768458425646 -0.000696424347298)
(0.818843360702 -0.00244463753078 -0.00201413512697)
(0.818105369534 -0.00370537876868 -0.00316330373817)
(0.81853314087 -0.00579464192181 -0.00116470131836)
(0.813515142176 -0.0043738717405 0.00306847851731)
(0.821065853798 -0.0794033682804 0.0118948091586)
(0.820293050471 0.00549682478678 -0.00137703628015)
(0.823203121572 0.00321965857852 -0.00068132712934)
(0.822820066391 0.0018879066162 -0.000880698517544)
(0.821290465644 0.000711720113282 -0.0012374175587)
(0.819890437762 -0.000475008504238 -0.0015371496617)
(0.820455077757 -0.00378479152133 -0.000393453279901)
(0.814321880553 -0.00577146510446 0.00193390367798)
(0.826736714285 -0.063960582883 0.00489830498622)
(0.816754436284 0.00661811719327 -0.00117830454584)
(0.819899506385 0.00278084614437 -0.000498557913811)
(0.820091092883 0.0003545069752 -0.000439853455612)
(0.819442660581 -0.00182286025006 -0.000631275019824)
(0.817916920956 -0.00270427689515 -0.000970139966561)
(0.818204973845 -0.00504125633392 -0.000608350118461)
(0.812795751867 -0.00660058280429 0.000443129900995)
(0.82708488587 -0.0661132929516 0.00165214556348)
(0.816505061511 -0.0014674930938 -0.000481146512339)
(0.81646347146 -0.00364340861637 -0.000219331660201)
(0.811310173957 -0.0054238756182 0.00020892871548)
(0.82752023115 -0.0509374128304 0.000539544557932)
(0.639613899256 0.0416719071462 0.00901607781181)
(0.637788084384 0.0394318275539 0.014138674834)
(0.648833437395 0.0230864682452 0.018524292054)
(0.647876456179 0.0197732856883 0.0167958473382)
(0.64793687189 0.02069165603 0.0177278839392)
(0.643447080899 0.0202054603143 0.0231279986368)
(0.68903008759 0.025323405628 0.0227722018785)
(0.509156551648 -0.0743444522321 0.0512892368929)
(0.773480111843 0.0131264130883 0.00565513128869)
(0.770800675397 0.00860168173733 0.0077155780806)
(0.778616678747 0.00131636874372 0.012454363105)
(0.77509510072 -0.000913945449906 0.0131668944686)
(0.77514088351 -0.00111071787071 0.0148624288484)
(0.779152664636 -0.0041587025682 0.0167874842295)
(0.789944842697 0.00349383688267 0.0225802370273)
(0.795437880364 -0.139592261993 0.0316680970475)
(0.822019425814 0.00618145465635 -0.00206506817763)
(0.823845130279 0.00404570949816 -0.000813213524686)
(0.822868544419 0.00273425267551 0.00100019066683)
(0.82100700011 0.00287028528497 0.00114683328641)
(0.820538207199 0.00218197265862 0.001447905846)
(0.82250931297 -0.00106161877308 0.00173074565795)
(0.81868014447 -0.00426809957807 0.00577567035082)
(0.844264419875 -0.0920196937184 0.0103265740721)
(0.817574856011 0.00626118737548 -0.00240831006663)
(0.820634941227 0.00295430149126 -0.000869060577601)
(0.820129142589 0.00113990503405 0.00064952993006)
(0.819238438788 -0.00110859159965 0.00075913369548)
(0.81804420297 -0.00272225911321 0.000727867926137)
(0.819426164233 -0.00597768952329 0.00164617438067)
(0.81482077234 -0.00810520159426 0.00450950030511)
(0.833655541979 -0.0768952884461 0.00675190717194)
(0.816612453051 -0.00127535112138 9.32731398908e-05)
(0.817086945746 -0.00344333331794 0.000743036462957)
(0.812146654395 -0.00557741131897 0.00271923819969)
(0.830214121988 -0.0578937812452 0.0037758589103)
(0.635942256842 -0.0158512786792 0.0138321963168)
(0.633295696929 -0.0163340126329 0.0185971823524)
(0.641839000273 -0.0215959453563 0.0241311095883)
(0.637945124195 -0.0210352004641 0.02314085184)
(0.63753992544 -0.0210121994946 0.023474383867)
(0.636102533674 -0.0192363454306 0.0255421685093)
(0.688842217903 -0.00487640495672 0.034289384138)
(0.52716903447 -0.183086350771 0.00135293848764)
(0.735103465025 0.00544019727616 0.0178919327508)
(0.736321037063 -0.00046553924181 0.021335519426)
(0.787758533695 -0.00284700018874 0.0113941046354)
(0.784757662732 -0.00317544106809 0.0117689773702)
(0.78329855725 -0.00444999142573 0.0107138423255)
(0.787605929391 -0.00564075233454 0.00933887966738)
(0.802030191582 0.00222232720661 0.00758174385761)
(0.827566509912 -0.151715958764 0.000377030801648)
(0.823909751236 0.00537658733231 -0.00563584256055)
(0.826897278631 0.0038257125967 -0.00142756538483)
(0.825202174596 -0.000370428589384 0.000979753646631)
(0.821584998905 -0.00284277559774 0.000778188056159)
(0.820592250602 -0.00424127490143 -0.000473844564098)
(0.824280248913 -0.00649911584035 -0.000848523058773)
(0.822151087708 -0.0103085992034 -0.00112360502703)
(0.861598742936 -0.116162467597 -0.00293038047385)
(0.812315346567 0.00987475879141 -0.00657042287606)
(0.819474831384 0.00642912996124 -0.00539180167738)
(0.82294138945 0.00261510300266 -0.00181290291799)
(0.821575394665 -0.000231553605142 0.000456972816197)
(0.820226591584 -0.00225817885546 0.000512766524875)
(0.818749737192 -0.0042973701702 -0.000181397680571)
(0.820964730927 -0.00664553314379 -0.000198992732106)
(0.817635099091 -0.00909781870788 -9.52283003591e-05)