/*--------------------------------*- C++ -*----------------------------------*\
| =========                 |                                                 |
| \\      /  F ield         | OpenFOAM: The Open Source CFD Toolbox           |
|  \\    /   O peration     | Version:  v1906                                 |
|   \\  /    A nd           | Web:      www.OpenFOAM.com                      |
|    \\/     M anipulation  |                                                 |
\*---------------------------------------------------------------------------*/
FoamFile
{
    version     2.0;
    format      ascii;
    class       volScalarField;
    location    "7.95";
    object      p;
}
// * * * * * * * * * * * * * * * * * * * * * * * * * * * * * * * * * * * * * //

dimensions      [1 -1 -2 0 0 0 0];


internalField   nonuniform List<scalar> 
28582
(
17096.2549788
17094.9790537
12197.3048803
12196.5548491
7296.27819654
7297.63218327
3616.41596013
3621.18002159
43.9098138566
49.4799598915
-27.5807246564
3618.29471058
629.989221866
640.37926411
3624.15837621
3625.35341185
643.161386557
1791.44570185
1792.10392459
17098.0137794
17094.7752128
17095.0160151
12199.1401083
12196.8693667
12197.1032597
7298.03635541
7298.96534648
3622.38903787
3625.87298586
49.0236179
-27.5699907216
-27.2703201226
3617.03225428
3617.41599107
632.358073057
627.103176081
1774.10448268
3626.50332842
3626.83410196
3627.320171
1792.48208084
649.794357113
1793.24967337
1794.33925355
47.0774310742
49.9411400559
-23.0389589986
-22.9774874798
48.3998631939
-22.963339114
1774.26926661
1776.45515661
633.304743875
631.383176602
1774.55886304
634.55106732
1775.60541157
1779.10254116
1780.83445073
637.189767651
641.684913381
1781.84749552
638.410247992
1778.03313565
1787.41643035
1783.56392666
645.74873505
644.587602725
1784.57124272
647.199569894
1786.41450178
1790.81526334
649.771015633
650.932114556
1789.67212504
648.243519892
649.559849144
1788.86494572
1792.89274249
651.398317177
651.767407563
1790.46068238
650.74311595
1791.27453613
650.214554022
40.7569940795
-22.9629923005
37.1455795633
39.2937022242
-22.8630870305
-22.8962254727
49.5461464097
-23.0144980843
-22.9528164063
49.3731320152
-22.9888588753
48.9858202249
-22.9226090838
1777.96633256
1783.79320577
629.673430982
632.76292722
1777.96181552
1783.61167243
630.31981243
1774.01093717
1771.85154454
627.722944556
627.974417557
1773.92648791
1772.06077777
628.494636727
629.351603557
628.581886241
1772.95068437
1774.01641492
628.468341958
1772.35940276
629.07768107
1791.88629592
650.592305353
651.593345172
1792.69873465
650.806140767
1792.21388315
651.738339754
1792.38954571
1791.44356754
650.454293217
650.646722475
1792.02179023
1791.78702239
651.3332647
1794.45216468
1794.07361994
652.069163399
652.470797647
652.863312524
1793.56095811
652.381722036
652.986345536
652.546159404
1793.6802183
1793.2584808
651.530444245
1792.63987737
652.134246223
7298.78551046
3626.19769538
49.6674421397
-27.1970325877
3615.92867154
629.076738715
3626.78629769
3625.26264355
649.355647815
652.036170284
651.280404859
3623.9424808
3623.27727658
650.839320845
649.742698324
42.3931260597
50.355388194
52.0667092623
-22.8497392329
-22.8960921021
-22.8211976141
53.262376294
52.9730599339
1774.70217935
1773.37267224
628.671810863
631.824089015
1772.65415932
630.31731456
1775.3303751
1790.29885195
1790.83030829
649.54569081
650.178473958
1790.18111672
1791.0983595
650.375165102
1790.68843185
1792.76353627
651.081994801
651.819369003
1791.78060697
651.124651114
1791.44039991
1789.45136158
1788.05840337
651.038039091
651.579033385
1788.10936285
651.141707396
1789.83033589
1786.41994834
1786.61754499
650.822437309
650.483481215
1787.04727413
650.597072138
1785.71208647
1786.20310824
1785.4488367
650.022506598
650.151125828
1786.22983395
650.347501082
1785.40315612
3652.91230742
3649.18326518
3647.6750687
3646.28047222
11.3003410808
12.9520200021
8.78663425937
10.4700590377
10.5951780548
-27.1247215723
-27.2099478435
-27.0896081105
-27.1288266305
-27.0409949066
-27.0588393919
3654.43936857
3653.75933544
623.270418228
622.842855074
3655.33387185
623.847162608
3652.082961
3650.62479264
622.389527887
620.056644563
3653.90450562
3650.6953896
3650.63111762
623.283824259
625.755035813
620.705990692
622.027231377
3649.79897791
3647.50457998
626.073168319
624.314996568
622.333654367
622.712754643
3648.66892559
3647.60720838
619.850934968
621.157827769
620.028917591
3646.14589102
3646.76444612
3645.81672801
621.482640466
622.566825715
620.506297546
622.597467964
620.575071316
623.026667438
10.4758663012
10.4959548011
11.8859079692
-23.214276958
-23.2084603226
-23.2212422927
-23.2156436309
-23.2216814511
-23.1637367514
-23.2238747617
-23.1550733717
10.1736951592
9.22946352206
12.3667711886
9.97310060049
10.5949021726
-23.2270525412
-23.2296329266
-23.2331106787
-23.2326348373
13.1182287873
11.3592813501
12.0525237447
-23.2157870575
-23.1706927668
-23.2270954719
-23.1954614273
9.54261609205
9.29599251504
-23.2246495006
-23.2276458454
-23.22166286
11.3651111264
10.2664560326
11.3820439742
-23.2214716076
-23.1896063514
-23.2185913763
-23.1894648365
1815.49423679
1816.46167157
622.016930433
623.215932297
1816.23312481
622.070465316
1815.64242838
1815.24150857
1815.44400658
623.126638364
621.698593152
1815.92419878
1814.77891843
622.050867294
1817.6048641
1816.16689713
624.163579426
624.853853445
1816.76955576
1816.84497241
625.428813557
1813.61821553
1814.7871833
621.274975817
621.729636321
1814.20039867
1814.13698405
620.780715317
1813.03076265
1812.93255649
620.75583215
619.390263427
1813.44440966
1812.66950466
619.925351641
1814.94567806
1815.33565982
624.107250308
622.500776961
1815.85946904
1814.54441118
623.215490131
1815.35904902
1816.8035839
624.940173988
624.489158276
1816.4045021
1815.57391055
623.921325778
1814.10235014
1813.17287524
621.562767515
621.23459057
1813.80704672
1813.35436788
622.205355247
1814.27368751
1813.3649715
623.124463907
621.642456068
1814.34134058
1813.42721204
622.662471656
1814.73716665
1816.83875821
625.944097448
624.651943957
1816.31947659
1815.35570211
624.634714724
1813.60227547
1812.74734308
625.310720888
623.556822527
1815.06924256
624.26788367
1811.73404477
1813.32371756
1813.00599853
623.428296659
622.645419253
1813.9889727
1812.45440228
623.581190206
1812.2750678
1810.56325952
623.07129955
622.734032111
1811.62357905
623.418585322
1810.80809618
1812.20162208
1812.63589781
620.334584947
619.387407595
1812.69918644
1812.27997948
619.803361868
1812.06537571
1812.52677735
620.841536034
620.543461025
1812.6790615
1811.87448899
620.148482549
1811.58586066
1811.04640488
620.192024704
619.632901124
1811.40790424
1811.22329206
619.771700491
1811.29530962
1812.17106501
621.845422769
620.920944378
1811.75337601
1811.59218881
621.304953849
1810.94553894
1810.55729083
622.207188952
622.501593852
1811.19007297
621.780624939
1810.63103737
1811.00762348
1810.90882714
620.601279897
621.005121883
1811.20771402
1810.79586322
621.04444305
1810.80431258
1810.78732343
622.419724063
621.668357189
1810.73038198
621.616717624
1810.70534034
1810.32027965
1810.61029297
621.160228374
620.727606859
1810.6070396
1810.27676146
621.456476211
1810.82011768
621.967895429
1810.62912421
17094.8658679
17093.5790256
17093.8209053
17095.1593225
17095.3619565
17101.9934072
12195.8491256
12195.1052634
12195.9207659
12196.931573
12196.7935247
12203.3355919
18311.4222516
18313.6000059
17085.3992335
17091.1083694
17096.4659474
17100.6221279
17106.5201726
17096.0909643
18313.5601178
18314.632771
17090.722911
17092.8923993
17095.2430444
17096.2813682
17096.2288603
17103.3647861
17093.7370119
17090.6983744
17090.8089021
17092.5892979
17094.5456843
17095.5281587
17096.0909348
17104.132955
17096.5494235
17093.1879641
17092.5519744
17093.6419585
17094.9678699
17095.4384629
17095.6040953
17103.5279016
17094.6065401
17095.0415377
17095.2432947
17102.5110564
13411.4001399
13412.3740404
12189.3508921
12193.2983805
12197.7187256
12203.0369992
12222.5645227
12156.2614794
13415.5016987
13415.1110613
12193.782685
12196.5058989
12197.847332
12197.1153525
12193.9712369
12187.3487418
12194.4496247
12191.9188835
12192.6637173
12194.7559854
12196.4442336
12196.6388649
12195.3941731
12200.3759585
12197.5521829
12194.2642254
12194.2104136
12195.9009896
12197.2428723
12197.0226795
12196.1091011
12203.1988816
12196.7878805
12196.7651193
12196.3650652
12203.3825162
8511.11162289
8510.76627128
7288.87292485
7294.76868247
7300.25009447
7305.11550899
7318.39510231
7245.52347236
8515.77189735
8514.47497473
7288.9423841
7294.6931841
7298.59449497
7297.53869713
7288.77447351
7278.71192764
7293.7541768
7289.69215203
7292.23536025
7296.06984433
7298.30517406
7297.59871983
7292.91339324
7298.73063305
7305.61592205
7296.75299355
7292.31245013
7294.08082848
7297.1834658
7298.55899999
7297.61933976
7294.40607418
7301.8906644
7294.24171525
7295.59591648
7297.83404208
7298.4818021
7297.52741377
7295.44373748
7303.56230447
7297.3309255
7295.72662564
7303.66710533
3616.45676043
3607.64028872
3609.89019651
3620.89575006
3627.71895828
3632.02115745
3634.88054311
3637.82527019
3627.05203008
3618.22518554
3609.31909947
3610.85870691
3620.62061992
3626.93250538
3628.63056691
3624.33866237
3616.24332978
3643.94384875
3635.88257741
3620.44248781
3610.85792216
3613.91545697
3621.80180941
3626.72064347
3626.73309158
3623.33153811
3623.83936133
3638.41154711
3622.3994476
3613.10849557
3616.56221636
3623.80239821
3627.31219828
3625.95523897
3623.57835132
3625.92565752
3615.47476255
3618.73156413
3625.02576207
3626.68469453
3625.30410288
3624.04411179
3625.50107174
3624.32495985
3623.66592613
3625.23034035
31.6211557525
39.2826456508
42.8937992619
47.2613016732
47.1209677661
47.8200161792
52.1899591468
52.3812271359
14.0290474831
21.0635743516
31.5608255513
36.5007432634
41.1116706421
46.9039275122
46.5037331604
47.4390437118
49.6919608396
48.0358553773
12.7666491251
21.6176846454
32.3149722016
35.5712125126
40.2605113024
45.2420238735
45.3823395473
47.1066672873
48.7448067282
47.1930137532
24.0048398508
34.6442240895
36.9120353286
39.8932943554
42.8160184485
43.8449768092
47.0853116727
48.8256542529
47.8336118472
40.7252814319
43.4464730807
44.9273632191
45.8253220705
48.8290974137
49.3967439984
47.7877639596
52.2466297392
50.5465166054
48.0266822579
-27.1610584919
-27.0266273855
-27.1741569571
-27.3915855791
-27.3998408205
-27.0960092213
-27.2066380966
-27.0823851118
-27.1511717244
-27.4838715022
-27.3487426023
-27.2378377463
-27.7669081342
-27.1756846853
-27.3124096431
-27.2046315677
-27.2390128853
-27.1005948573
-27.1473499071
-27.380953596
-27.1898899704
-26.9627981472
-27.1776423214
-27.0894431399
-27.228295244
-27.1582388929
-27.3618515201
-27.0978332191
-27.1730412883
-27.3340700915
-27.0568664325
-27.3018958118
-27.1864439238
-27.2622550906
-27.074220875
-27.3909607513
-27.0985728891
-27.1920515141
-27.3633559874
-27.4924079813
-27.3765388234
-27.4772115975
-27.2861727757
-27.1160014932
-27.1705313727
-27.484572821
-27.0941243444
-27.2083844483
-27.6411979284
18312.7073401
18311.6428506
18312.9591513
15861.7240752
15863.0081516
15862.4902071
15863.3018967
18314.0677652
18314.1522825
18314.8743554
15863.9410922
15860.3641236
15863.7996417
15862.6471991
18313.8039026
18316.015205
18315.0480204
15864.3643904
15864.7766858
15866.560662
15865.9371825
18314.961951
18315.0785453
18315.4272289
15865.1386728
15864.8128309
15866.1445656
15866.7593552
13412.1350486
13412.8812775
13413.0235251
10960.7721946
10961.3250722
10962.5647345
10962.7097405
13412.5981394
13412.8570387
13413.8524137
10961.4639296
10961.6095329
10962.5532615
10962.3272559
13415.2336625
13417.1149994
13416.5307957
10965.5895811
10965.3562384
10967.4678736
10966.3587856
13414.8709548
13416.3455456
13419.3537157
10964.9642271
10961.31075
10965.3164687
10967.8221142
8511.07647489
8513.17775602
8512.76268951
6063.01178618
6061.29208408
6064.74744547
6062.71978701
8510.52245076
8512.15897687
8512.19357182
6060.00382685
6059.25826019
6060.91497177
6061.61506117
8515.12507869
8517.58351906
8515.95233395
6066.59941334
6064.3861332
6068.03154789
6065.14549483
8510.74090142
8514.57187118
8515.99746015
6062.54075941
6061.10837272
6063.09203315
6064.07408369
3619.62248666
3621.70607651
628.914135213
629.584577463
3611.83721757
3617.99048449
3612.79129087
631.523774904
625.968544059
631.115834439
625.317777735
3606.56411904
3608.69972261
3607.51183442
622.568733552
622.125019874
621.637803967
622.280491865
3615.93090151
3610.06413845
3615.64313504
626.495482746
641.129272642
626.436400402
640.426040752
3624.80615623
3620.67819115
3624.4822477
645.241615537
649.530656965
644.307647094
648.424923352
3629.97293807
3627.35748291
3629.29502263
650.483615097
653.052200838
649.164624909
651.460177923
3633.20930855
3630.71893881
3631.1166242
653.773114659
655.034589273
652.443883842
653.020895746
3635.09226084
3629.32631176
3623.27937417
654.385191733
655.053510845
651.776011537
647.992584427
3593.64881577
3611.75553526
3607.90890136
657.306811966
614.928850548
647.883770639
630.948130824
3642.8493973
3637.58198016
622.979743067
623.551692654
622.740384653
626.106217396
3622.83030842
3632.22653741
3625.87764337
624.798702563
629.87774225
628.572429822
631.232929115
3613.29640138
3619.11467466
3613.30330997
630.52563617
624.632524956
629.769298833
622.250186277
3608.36957228
3610.05188611
3609.91918218
621.175989306
622.660155921
619.761892109
624.427973115
3615.83039899
3613.14404145
3617.60412181
626.85918392
640.512541078
628.424540183
641.02172862
3624.35517323
3621.68124149
3624.72343979
644.382799569
648.639434755
644.403464826
648.535048051
3628.24008951
3626.94055559
3627.75589464
649.256306459
651.116911869
648.909310676
650.29015869
3627.30183062
3627.55927058
3625.98477097
651.914893872
652.116342467
650.280807289
648.795636865
3620.82847896
3623.60640636
3621.12622782
650.699214444
646.540323581
647.565969811
645.038752945
3625.70728845
3619.22591605
3633.5712097
646.458332067
632.306963981
645.791774467
633.073120319
3640.72704133
3644.63977764
3642.41154958
622.945628455
626.953497452
623.886525427
631.083706213
3628.52187439
3637.80250091
3630.15251064
629.607918093
631.613952949
634.003189614
632.875198042
3613.84991295
3621.59106409
3614.71745966
629.510362011
621.648111221
629.435707515
621.864628771
3610.75399444
3611.69180211
3612.10411363
619.42589421
625.238317759
620.901956831
627.719640955
3618.09080149
3615.37173799
3619.41821073
629.006847582
640.89650212
630.742774021
640.040963419
3624.7298514
3622.96886012
3625.491227
644.034844683
648.260401946
642.550009943
647.124465879
3627.34506677
3627.20980292
3627.31517457
648.547067569
649.894185218
647.769118721
647.828600541
3624.99453281
3626.32897516
3624.72635305
649.68856037
647.713085568
647.64686976
646.467853706
3622.6118718
3623.37579329
3623.4994307
646.71158609
645.182830406
645.968176562
646.122867317
3636.82589225
3625.41991281
3637.25102481
646.464957988
633.21739575
647.650863705
633.646808165
624.416325844
632.42786482
3630.82307082
3630.47336628
635.502261826
633.310428328
634.806015381
3615.7827583
3622.54790025
3616.53155441
629.70721756
622.65584973
631.766412989
626.087947177
3613.54725487
3614.48503983
3614.72180055
622.151720103
628.517927349
626.178932764
631.889488718
3620.47830651
3617.67802765
3621.45248014
631.385436398
640.068614802
634.849289879
642.147067211
3626.0468468
3624.52144459
3626.46701283
642.434386334
646.893637531
644.26875397
647.137020362
3627.00795277
3627.09877604
3626.57486625
647.438150616
647.336270076
647.053301486
646.874561269
3624.60414732
3625.66710178
3624.64876477
647.248347335
646.588677369
647.402673277
648.073927491
3623.99687501
3623.93399601
3624.27364461
646.310583084
646.394144519
647.960372351
646.90777983
3636.72570796
3625.74627499
3635.64985182
647.635795563
633.499002229
647.369967696
630.917540877
3615.93153892
3616.80852641
627.203705299
633.26296648
638.313802486
3622.3132514
3619.83191247
3623.11116254
636.306650175
643.377458765
641.286585968
647.9985939
3626.44157752
3625.31915066
3626.30155259
645.297597759
647.480217873
649.1210254
648.963160732
3626.14872297
3626.30343311
3625.70377828
646.983954997
647.36603051
648.438652383
649.327835384
3624.52143292
3624.87371997
3624.20556188
647.890852282
648.722368946
649.770986744
649.871058505
3624.32330404
3623.97406928
3624.28723718
648.448441201
646.905560225
649.2447498
647.110967024
3634.61366628
3625.31604477
3633.73356307
646.985026445
629.606143581
646.774866911
626.308688359
3625.29562982
650.022709678
3623.73220641
650.245759599
649.997558183
3624.11623049
649.382168738
647.390982532
3633.12158208
647.28155185
626.059912063
-23.0975547783
-23.0634365502
-23.099167626
-23.0645873382
25.9446551523
25.9389707669
-22.9863049328
-22.9631990053
-22.9791076804
-22.9489818607
35.9970584378
31.4096716005
35.4434478017
-22.8942430777
-22.8422279575
-22.8350759199
-22.813398786
40.1269360516
37.9473935574
38.8640480714
-22.894873301
-22.9549953009
-22.8572446402
-22.9237127282
44.9612293356
41.7399005852
44.1842789051
-23.0073497851
-22.9556275555
-22.9934045093
-22.9374996317
47.1429949689
46.6650072358
46.60267737
-23.0373733633
-23.0977144691
-22.9714674788
-23.0371271847
47.3564402542
46.4929750853
47.1948723082
-23.0944107359
-23.0714165098
-23.0461102245
-23.0558890838
50.2165926197
47.8446346845
49.6703362306
-23.0173463518
-22.9881400238
-23.0085258996
-22.9916535243
52.8081162309
50.8940589056
51.3177555034
-22.9096663337
-22.9215455016
-22.9143402374
-22.9340986828
53.8055247924
49.854199778
54.4180504066
-23.0167563872
-23.0004833974
-23.0485882178
-23.0286446408
16.7127067238
13.3888969955
16.3403816227
-23.1502424674
-23.1035684594
-23.1720227144
-23.1029272449
26.4816682214
21.2006760426
26.8713496344
-23.0321019899
-23.0038841156
-23.0297205361
-22.9942404451
34.9667535256
31.7525960842
34.6119325672
-22.9338450068
-22.9438019377
-22.9253234567
-22.9603559721
37.8520938344
35.7588871249
37.5087342471
-22.8746909838
-22.9099507046
-22.8780915965
-22.9181461006
44.197241818
40.8753622764
44.0982762642
-22.9975341627
-22.9634161431
-23.0260005168
-23.0313649717
46.9276290368
46.3901464865
46.7405482792
-23.0097137851
-23.0347514047
-23.0704492564
-23.0744843989
47.1354866788
46.3216345173
46.8511246086
-23.0477955324
-23.0575766525
-23.0479487429
-23.0418629902
49.0285247357
47.3661773009
48.6185610358
-23.0015522707
-22.9761674735
-22.9886511224
-22.947346488
49.979705357
48.8484666166
48.7959766682
-22.9224290615
-22.9587925425
-22.9167238683
-22.9657577332
53.4005268103
47.1897869246
52.813675136
-23.0696092862
-23.023365709
-23.0670109913
-23.0143101354
16.0726549792
13.0094265108
16.3610686122
-23.1585244671
-23.0586478673
-23.1614402695
-23.0551755795
27.7622757924
22.4683165644
28.8905917194
-22.9597699789
-22.882487848
-22.9308792938
-22.8485546824
34.6954364514
33.3410227392
35.240918973
-22.7795824537
-22.8032384048
-22.7334623119
-22.7436795906
37.5065703627
35.8659710629
37.6612841412
-22.8287862992
-22.9049428999
-22.8133078065
-22.9003053437
43.3522784925
39.6599413986
42.1242727199
-23.0047749988
-23.0355764601
-22.9971225122
-23.0525604879
45.9149636963
43.7369557251
44.5786973356
-23.0605733266
-23.076964983
-23.1069110393
-23.1307113112
46.1049845805
44.2381286883
45.3622994998
-23.0817837441
-23.0088732299
-23.1162009992
-22.9951362939
48.4304117224
46.9861249271
48.5171203448
-22.9219598874
-22.9060921194
-22.9026757541
-22.886774012
48.4961694699
48.8175161196
48.5481629895
-22.8982035725
-22.9544494852
-22.8903033483
-22.9472232401
52.7164608537
47.6634123751
52.7900852586
-23.0537676675
-23.0105997219
-23.0413510421
-23.0025917694
30.3995220784
32.1506273685
-22.9166614369
-22.8388749275
-22.8507860303
36.229658689
36.0719647186
37.709935088
-22.7574887085
-22.7702077383
-22.7764436979
-22.7943400965
38.2530365915
38.7317236478
39.8612770006
-22.8327214603
-22.9033321413
-22.8454169469
-22.9040626728
41.583792233
41.2428265604
42.1222269615
-22.9892073848
-23.0527128966
-22.9747380307
-23.0147773915
43.5852924305
43.3077922854
43.7411017085
-23.0959562372
-23.1023415924
-23.0380877437
-23.0165084982
45.2088737696
44.4954194192
46.0212184123
-23.0634974279
-22.9549409682
-22.9983107324
-22.916722835
48.7209574226
47.6461158139
49.0953751681
-22.8656768544
-22.8605407318
-22.8409755645
-22.8346912327
48.5099873567
48.9799415676
48.7866204697
-22.8743078218
-22.933603473
-22.8639458013
-22.9261360405
52.7308184742
47.8887232167
51.7459490258
-23.0247337919
-22.9905432371
-23.0154311809
-22.9750386706
42.0122721675
44.4953831813
-22.9315311187
-22.9643129721
-22.9951717931
-23.0039530887
44.2054862745
45.9668765307
47.0966354521
-22.9955945805
-23.0022402098
-22.9534018676
-22.9574237463
45.4011855488
47.3730470456
47.6630860878
-23.0289875691
-22.9951274097
-22.9829243678
-22.9681876739
47.4384820829
48.0875670732
49.3791483777
-22.8501703725
-22.8427698666
-22.8679986674
-22.8219934126
50.0110150101
50.621678132
51.2246198704
-22.7960852124
-22.8083312837
-22.7692021424
-22.783188125
49.1026337195
49.946753516
49.3519139903
-22.8529525595
-22.9138645909
-22.8427364202
-22.9045844671
50.9014916312
47.7309512766
50.3886147275
-23.0075233726
-22.9439768224
-23.0016866636
-22.9406342866
51.1234041901
-22.7941716928
52.187248495
-22.7552201981
-22.7666621977
-22.7644318311
-22.7681017841
49.7093638077
-22.8391450541
-22.9012466241
-22.8367782635
-22.8938673769
50.5894923018
-23.0119591511
-22.9628772207
-23.0091855409
-22.9744793447
1789.49300411
1787.9955822
625.510102736
629.010714085
1788.49486642
625.661547796
1788.62907818
1790.4416712
1789.78230586
629.305269751
627.165919844
1789.14573274
1791.64435831
626.309589555
1781.5034086
1785.64880337
631.483371883
631.422738505
1785.94519727
631.402721754
1781.2364342
1775.79627575
1768.89524034
628.955231112
625.937163748
1769.36030406
628.98568334
1775.37837494
1781.79014419
1786.5699877
631.29727027
630.414659273
1786.32323918
1781.76435241
631.094048672
1776.10864578
1769.98207336
625.751301956
627.970924343
1769.80737874
1776.04579457
628.722704574
1760.45044115
1763.32624881
620.243862361
622.383568108
1763.78971306
620.067623215
1759.91066024
1761.41724585
1763.79756648
619.334526968
621.884031646
1764.1146723
619.2190784
1760.86720813
1761.26498507
1764.97790777
621.885767024
619.12869551
1764.37496204
1762.31544567
619.501224234
1762.27909172
1765.42988601
622.108599092
619.171396094
1764.69682617
1763.33539111
618.997590754
1771.47103603
1766.30726599
631.556707816
626.133665107
1766.78454606
631.137002542
1771.11429491
1776.67513293
1781.13089262
636.781179397
640.662687878
1781.409499
636.3715379
1776.39226151
1771.88933851
1768.04416117
626.434217725
631.04427947
1767.39112104
1772.23632611
631.10826188
1776.91169259
1781.72346492
640.453249682
635.882098481
1781.59533297
1777.03876042
636.112570656
1788.12532727
1785.10386302
647.492864693
644.677912436
1785.24567854
646.866448028
1788.16591483
1790.29817971
1792.60865235
648.514407795
648.883839135
1792.39073133
647.845794764
1790.46208739
1788.07303921
1785.38676418
644.315561092
646.327218414
1785.33724175
1788.07884268
646.486436815
1790.17592655
1792.22832655
648.514478948
647.384135288
1792.24432411
1790.20977997
647.444698548
1794.94178315
1794.26542944
651.185982715
649.784474972
1793.98023757
650.499108204
1795.3253159
1795.9233931
1797.31223932
652.108385554
652.549789464
1796.93633831
651.406890871
1796.35553657
1794.61604517
1793.65399339
649.377825742
649.484413406
1793.80769437
1794.35778502
649.85721305
1795.47704657
1795.82659075
651.913289581
650.372245044
1796.36525085
1795.09294733
650.792570695
1797.44059105
1797.77395824
654.434493121
653.536592236
1797.43282756
654.081037807
1797.75235898
1797.06722496
1796.79590907
655.117167828
654.484620761
1796.26146197
654.659617548
1797.46473977
1796.85039316
1796.2755012
652.950326617
653.190785177
1796.87656844
1796.2255653
653.720973475
1796.47832533
1794.16896033
653.772169215
653.5117392
1795.35309507
1795.63371873
654.139252017
1794.23009248
1796.3305686
654.180372492
653.654642171
1795.32721794
652.997581895
1795.63693001
1793.35127218
1793.52493164
654.490034317
652.86959188
1790.95928351
652.762300417
1795.39181142
1791.93631184
1792.21698873
652.732420721
650.518847324
1793.72869291
1789.96003396
651.864963348
1789.91796389
1784.81653338
650.080290456
649.054924286
1786.99533165
1787.55999028
650.74335208
1780.81617359
1789.13914911
661.912813758
654.46376683
1786.52589766
657.939214894
1783.28808488
1770.54821979
1778.42462463
669.15813058
621.281398063
662.226139554
1783.5918517
1773.43285144
1777.55952745
1781.15877866
650.382335815
651.350010195
1782.71153266
1776.74043858
653.514843167
1768.50494167
1793.20824203
628.175977066
657.017228381
1768.43733399
658.480659604
1789.00707903
1806.14283757
1809.01891833
622.305693648
622.828720259
1805.28231214
622.556360942
1808.93628134
1803.56506157
1799.49172876
622.789383217
624.511117098
1802.08204383
1801.57932556
623.261611352
1806.92775131
1809.24023958
622.823896901
623.223795654
1807.9102093
622.883608628
1808.85530253
1805.13843141
1805.38837845
625.214337874
624.325025758
1803.57797765
1806.60952071
623.695611584
1797.22803286
1797.19262612
626.409142684
626.190409967
1795.00613905
1799.53437462
627.952572413
1794.34008149
1790.04084588
628.319022067
630.349684893
1792.73519223
1790.54863783
629.722802931
1799.35525133
1803.72604707
627.273662905
630.466344619
1801.74324231
1801.09719579
629.293239315
1795.85733129
1791.64380481
630.848096706
631.582825401
1791.2356933
1796.96475029
630.790024259
1780.92987116
1786.31425258
629.715139153
629.998307901
1781.39736969
1786.0417526
629.039181196
1775.70686451
1769.97990018
627.404607434
623.942057175
1775.85058666
1769.97770513
626.966795003
1780.30983657
1785.68929313
629.876164134
627.729953519
1785.93971606
1779.4928066
628.51554798
1775.08027233
1769.02070873
623.11767232
624.92017046
1769.62004564
1774.07285029
626.159062212
1764.2722099
1765.40582144
619.010981314
620.637831932
1763.26697725
1765.65879505
619.013280643
1765.22263087
1766.12601522
619.437816516
623.155560647
1764.13980225
1766.96839608
619.96956848
1765.2185106
1766.27433864
620.13040141
618.96882408
1765.9129789
1766.12352596
618.927189578
1766.43006321
1769.1452834
623.799565713
620.962916419
1768.11707891
1767.40632107
620.428579955
1773.4087882
1768.66819283
631.227842083
627.182776609
1772.62478495
1769.63464637
631.530594273
1777.73965565
1781.71036229
636.029253338
640.695585927
1777.20228703
1782.10588523
636.25751049
1774.42351938
1771.92601736
627.863316131
632.483992267
1770.80187064
1775.48081318
632.102815608
1778.60925797
1783.37828737
640.876273838
636.894472553
1782.73203646
1779.50591769
636.644465572
1788.28308299
1785.3426012
646.505378956
644.476195315
1788.12527245
1785.56566262
646.657516534
1790.43334975
1792.23073859
647.636380872
648.676419688
1790.33717732
1792.20581422
647.75418944
1788.53074044
1786.40646808
644.417590664
646.418090194
1785.92734315
1788.96006927
646.515327892
1790.56357233
1792.37036047
648.525473179
647.705306789
1792.23046291
1790.90825088
647.688944291
1794.12627252
1793.51889411
649.43601763
649.2266585
1794.12606589
1793.46216548
649.424867229
1794.67198927
1795.30172137
650.212493944
650.771625711
1794.76466966
1795.03086564
650.136937363
1794.16803959
1793.52437132
649.064599612
649.248873408
1793.4987725
1794.17754261
649.40266854
1794.59404147
1794.39159349
650.725236667
649.971184269
1794.72057015
1794.50056793
650.176573545
1794.69844527
1795.54177543
652.513143791
651.328979677
1795.47438423
1795.03439704
651.750428223
1793.62589238
1792.67594124
652.810882718
651.193822052
1794.65136849
1791.6251937
651.930453011
1793.66669521
1793.71833342
650.935646266
650.026457645
1794.33945781
1792.66562297
650.877047101
1792.41583402
1789.21760029
650.0118145
649.617861142
1790.41692855
1791.19778535
650.726442896
1786.66986296
1790.2162271
649.223571941
649.743746656
1787.79286324
1789.10923548
648.195986591
1784.47962558
1783.22010741
647.619239303
645.677454287
1785.42796709
1782.67200499
646.647762853
1785.93409606
1787.13662032
648.626038581
646.415799795
1788.07174023
1785.372496
647.243559491
1784.14888209
1782.99787101
645.129076651
645.411213584
1782.7364955
1783.99556369
645.868846895
1777.73446543
1780.71756909
650.510423923
645.76545242
1777.4440696
1780.67426467
650.007735155
1770.83171714
1795.98571553
656.451504306
632.715342295
1770.48333302
655.932013597
1797.22293719
1778.55505918
1781.53431306
645.663241145
649.870121203
1781.0898931
1779.0116236
649.994229585
1772.03639315
1797.14837993
632.762958972
655.178685912
1772.22355209
655.980238309
1797.46702739
1809.8762793
1809.73503081
623.636951609
623.236626744
1808.83752216
624.234232824
1810.27406646
1809.27853246
1806.88509225
624.935879518
628.180036312
1807.89448612
1808.41198265
625.869553696
1810.76140531
1810.96209484
623.582963987
625.719735147
1811.40097597
625.041691838
1810.6723889
1810.50636168
1811.02869422
629.640974898
628.174787995
1809.84740566
1811.50747583
627.115142814
1803.44846796
1805.26563283
631.494710217
630.856778259
1802.41185811
1806.67895089
632.52694982
1798.33943766
1791.90602046
632.41829412
632.021394488
1797.77750192
1791.97155539
633.210182881
1804.23026567
1808.93750644
632.365540707
635.223632003
1807.92972276
1804.83769118
633.778822781
1798.65662019
1791.58328533
632.436539061
634.845913606
1791.89529333
1798.74282577
634.000601747
1778.16341003
1785.46213566
627.083520645
629.341765286
1778.85507192
1785.0488173
626.545499438
1772.85334967
1768.79862093
624.103770963
621.32507849
1773.37807851
1768.9532033
623.679232922
1777.67550134
1784.31416699
629.336045852
626.220057178
1784.71705169
1777.30008878
626.259811514
1772.54238687
1769.8049991
621.405438222
623.504983488
1769.31370055
1772.41961991
623.435800343
1767.86960825
1766.84250725
619.353534768
619.400490613
1766.98524124
1767.48985242
620.145436052
1768.69773321
1770.11615478
621.854869162
626.07888235
1767.73793024
1771.25574294
622.788695593
1768.820549