/*--------------------------------*- C++ -*----------------------------------*\
| =========                 |                                                 |
| \\      /  F ield         | OpenFOAM: The Open Source CFD Toolbox           |
|  \\    /   O peration     | Version:  v1906                                 |
|   \\  /    A nd           | Web:      www.OpenFOAM.com                      |
|    \\/     M anipulation  |                                                 |
\*---------------------------------------------------------------------------*/
FoamFile
{
    version     2.0;
    format      ascii;
    class       surfaceScalarField;
    location    "7.95";
    object      phi;
}
// * * * * * * * * * * * * * * * * * * * * * * * * * * * * * * * * * * * * * //

dimensions      [0 3 -1 0 0 0 0];
oriented        oriented;


internalField   nonuniform List<scalar> 
92311
(
0.203873281062
-3.37222284141e-05
-0.000865481332147
-0.203694959055
0.000720881048759
5.95965569788e-05
0.203839704851
-0.000365278411973
0.00033944665481
0.203951160983
7.51554942485e-05
-0.000914278921695
-0.203897749137
0.000752215994108
0.000243820683242
0.203805535388
-0.000420184881428
0.000381818459407
0.204203792872
5.41607389536e-05
0.000166353216086
-0.00110420819803
-0.204463914447
0.000866025102714
0.000112654950466
0.000240430158144
0.000191829263572
0.000195572075573
0.000257236150155
0.203586438622
-0.000478625629973
0.000432000224273
0.000263197162577
0.0513145914141
-1.20450495945e-05
6.21758700921e-05
1.76576339781e-05
3.99258368128e-05
-0.000463535650147
-0.0513520144806
0.000447332120745
-0.0511728070995
0.0510248941284
9.39079037426e-05
6.73674451812e-05
9.16649447682e-05
7.22336371888e-05
-0.000278030838228
0.000292620288307
-4.55711233977e-05
-0.0125290145772
-7.31074248711e-05
-7.07955134908e-05
-0.000121625124396
0.00780662960466
0.012502657423
-0.00153617112068
-0.00593315747661
-0.00632784041119
-0.00592010420633
-0.00186319998135
0.00697448941927
-3.82728482761e-05
-6.11535711402e-05
-5.59118690183e-05
-8.9318176919e-05
0.00738126666791
-0.132405977735
-0.00312169524115
-0.00603321984582
-0.00144262826807
-0.0813456409876
0.0867641355855
-0.00639154278033
0.000731532673008
7.87472114265e-05
7.85234706475e-05
0.000103329337405
5.43649535081e-05
-0.000372111715366
0.000365157672992
1.57116211374e-06
0.0121431685529
-1.59356855412e-05
9.68322657253e-06
-0.0121841167263
0.0120788193376
0.000116889066686
-9.6546328543e-05
-0.0120997466264
-5.03383999379e-05
5.09877671088e-05
0.000185729017427
6.68341529218e-05
0.0509494464115
4.86785986269e-05
7.48765708449e-05
5.3788096633e-05
-0.000158892123602
8.37217197669e-05
0.0508554072798
0.000104080664669
9.09793943087e-05
0.000108856668077
-0.050940911528
0.000140900571881
0.000108547989023
-8.27197490555e-05
0.0120484755108
-6.63272576646e-05
7.07925344427e-05
7.03667099936e-05
0.0126760879791
-7.31722880801e-05
7.65198492274e-05
-0.0126829481871
0.0126622219764
7.21123131357e-05
9.04098494367e-05
-0.012670623128
-0.000401063897173
0.204123285583
-0.00167638381793
0.00143025661161
-0.203476094815
0.20378558393
2.81454269706e-05
0.000214999030083
-0.000188416474059
-8.02268483915e-05
0.203832086388
0.000397078348702
-0.000362868382466
-0.000848219064609
0.204294390408
-0.00166405234786
0.00152022299015
-0.203703286031
0.203753336498
0.000127013400593
0.000110459980179
-0.000156542543777
-0.000140934361745
0.203835384863
0.000373557855671
-0.000394422510728
-0.000501739879369
-0.000406587222248
-0.000346526061935
-0.00180083515138
0.204935920873
0.00177599283377
-0.204029784295
-0.000474671355118
5.73434282051e-05
-3.45560287517e-05
0.00012739869459
4.37235817434e-06
0.203576985297
0.000118315234515
-0.000135996308959
0.0514311037904
-0.000210294915113
-0.000225139863421
-0.000216886303427
-0.000219732556655
-0.000514596928537
-0.0511167280997
0.000570539019222
0.0508826879575
0.000135822833515
4.40757005501e-05
2.7322339437e-05
2.09885247162e-05
7.0140824808e-06
-0.000111023461921
-0.00584263259751
0.00107089434736
-0.00663178860911
1.98877453118e-05
6.87243541836e-06
2.71740707848e-05
2.07433303833e-05
0.00500099486435
-0.00673011166678
-0.00797178680087
-0.00697273263618
-0.116217295388
0.0588781428838
0.0869256248459
-0.073610693052
-0.00761411472211
0.00638799404616
0.0034408370004
0.00544319687186
0.00343360048991
-0.055414446976
0.0153760326133
0.000137447496419
0.000471361952852
-0.000155107411327
-0.000124966100038
-0.000156072147374
-0.000124909842056
0.0514929847131
-0.000378573201085
-0.000122986361438
-8.47545307616e-05
-0.000131209783142
-0.000100397564509
0.0514059058284
0.000505287010496
-0.0513468564854
-0.000283075240391
0.000303778349331
0.0121449541796
5.19451872436e-05
-8.81046077567e-05
-0.0121295557638
-0.000112494690594
0.000134750065588
-0.0121645785938
4.40127414378e-05
-7.04010024658e-05
0.0121687043461
-0.000151126526493
0.0128905697077
-0.000160178716883
0.000167188497036
-0.0128694497242
4.77861059931e-05
6.77280866476e-06
-2.87201393081e-05
-7.42675249369e-06
-1.918493319e-05
0.0508835649763
-3.45718709126e-05
0.0507863980874
5.77647436347e-05
5.52041167942e-05
7.7490981316e-05
3.53515025253e-05
0.000106573503947
3.70387834302e-05
-7.03376702871e-07
1.78195253348e-05
-1.37211340286e-05
0.0507720435234
2.63419759538e-05
5.3874433284e-05
-5.50761094623e-05
5.45153192129e-05
0.0126669207774
-7.0297402932e-05
3.23611191181e-05
-0.0120442595457
-0.000143472281172
0.0120626900266
0.000162883248858
5.81653331474e-05
6.68716252572e-05
0.012648913842
-0.0126302086169
4.44277308606e-05
0.01262899169
-2.53291250322e-05
1.91404426183e-05
-0.00930801753808
-0.00011175204833
-0.000176618761166
-0.000171690437109
0.0102191787353
-0.00719631340639
-0.0056675925194
-0.00470008315447
-7.34673321539e-05
-0.000102668764662
-0.000115159495484
-9.03677809667e-05
0.0028671801117
-0.00421140461564
0.000505592147116
-0.00253745019319
-0.0148075014861
0.00871414436273
0.00080735218962
0.00989547647316
-0.0147959827239
-0.00552817090083
-0.00481165622215
-0.000104146371997
-0.000162836569939
-0.00015119043729
0.00965171925487
-0.00664714399987
-0.00661715563166
0.00737497044575
0.00288442968869
0.000149027364051
0.0128533477475
-0.000144567091839
-0.0128685106499
-0.0128497256055
0.000111581236511
-0.000148143248293
0.0128182409549
0.000130187675392
-2.21105147e-05
-5.91652859841e-05
0.0121349255721
1.62074649473e-05
-3.88376521037e-05
0.0121250586895
-0.0121652693016
-7.85775720457e-06
-0.0128615937173
0.000139371829133
0.0121166946383
-2.3896662217e-05
0.0128278573543
-0.000142389026371
0.0127842432811
0.000130086562907
-0.000136371426061
0.000118806489234
0.000121522189156
-0.0127960154125
0.0127675131559
-0.000111068791456
-3.92874383813e-05
-7.69005862094e-05
3.95629298313e-05
-0.000149605343123
-0.0120803814586
0.0120607591704
-5.77267443176e-05
0.012753229452
0.00010599924047
-4.46613349385e-05
-0.000127403221773
-0.0127253141182
0.000123384793248
-9.15356421023e-05
0.0127037123681
8.36632845967e-05
0.000111825096642
0.0127390593246
-9.87789338804e-05
-8.46700128318e-05
-8.15010740639e-05
0.0120175237976
9.2958193319e-05
-0.000130730892548
0.0120279940673
-6.58192606028e-05
0.000100686158622
0.0119951610449
-7.96460085082e-05
0.0127161703632
-7.79845960832e-05
4.32023172425e-05
-0.0126951518132
0.0126884586859
-6.09523023628e-05
-0.000115702015514
-0.0120075156433
0.0119906713092
0.000137510120049
-0.0119934398694
-8.88232509497e-05
0.0119819640428
0.000102661650874
-8.12738247756e-05
7.43562101337e-05
-0.000100098884491
-6.30736356427e-05
0.000117301222556
-8.49860833716e-05
-6.95633335167e-05
0.000130485674257
-0.0126638983959
0.0126522134897
5.74182982727e-05
-6.73293354538e-05
-0.0119892199681
0.0119846594902
-0.0119844921287
0.0119825018075
-3.74664831979e-05
7.53079251837e-05
0.000111962291678
-0.0126925498814
-0.000144417026936
6.38436707652e-05
-0.0119822840518
-3.67768132977e-05
-0.0126845950955
6.04207459877e-05
-0.0119886285078
0.00288436954286
0.00271573895406
0.000153412964438
9.01013720037e-05
0.000107758188042
0.000162477381434
-0.013143491433
0.0113940377757
-0.00436407285439
-0.0129718064122
-0.00229952465164
0.0117268278352
-0.000294666569382
-0.0124142747362
0.00395201650066
0.000259035003475
0.000266032159279
0.000238264469687
0.001672539906
-0.00147366416992
0.00721808263039
0.00400817416347
0.000173884020319
0.000118586631028
0.000167490830603
-0.0164352966355
0.00215718226449
-0.00320111322175
-0.011047244217
-0.000214074248597
0.0104469977767
-0.0132789219892
-0.00585661263204
-0.00151695950273
0.00414984464113
-2.59651140953e-05
-6.4071013784e-05
-4.23638392271e-05
-2.48001383646e-06
-0.00547347673936
0.00111173990727
-0.0143415778376
0.00329165175212
-0.0116514383281
0.00248435176626
0.000111166765544
0.00622219481717
1.35839235599e-05
4.76093533416e-05
5.73166180706e-05
3.22420758296e-05
0.00355823991434
-0.00589216010448
0.0014596935823
-0.0130303672164
0.00278029113293
0.00119325049682
5.21055722741e-05
7.33902583308e-05
4.67091489537e-05
-0.00583123019498
0.00398648468986
-0.00838573910274
0.00283174009869
-0.000134591235183
-0.0128482935904
-0.000257924069353
0.012879151815
0.000151421726732
0.0128624097659
0.000145050036292
-0.000130052772695
-0.0127985870879
0.000267266699798
5.15632309226e-05
0.0121662221722
-8.10166272895e-05
0.000291328544528
0.0121341414818
-0.0121198287925
1.23804993023e-05
0.0128940285567
-0.00011542245951
-0.0127891384552
0.000157852257108
0.012152485699
1.38713354169e-05
-0.000118637666873
0.0129053888718
-0.000203180440271
0.000140592023085
-0.0129195832582
0.000111200426531
-9.03562796761e-05
0.0129086365348
0.000203927259947
4.21423528161e-05
-7.04903986006e-05
0.000139355042546
-0.0121494307853
1.47300481516e-05
0.0121579796246
-9.61812921479e-05
0.000135541852902
0.0128958566049
9.78201780181e-06
0.0121524837963
5.7871523583e-06
-7.37166358768e-06
-0.0121487419335
7.5244222106e-05
1.69340189819e-06
0.0121712781033
-5.43470072782e-06
-0.000154996847053
0.0128761786545
0.000160067637038
0.0128979398887
-0.000175335635662
-0.0128732003674
0.000108682908424
-0.0121565858343
0.012171854241
0.0128868716973
-0.0121537778021
2.74196495195e-05
0.0126805050111
-4.71141736374e-05
-0.000129255026035
0.012014690516
0.000152519842281
0.0120075572263
-9.3506525747e-05
-4.36407251124e-05
2.40148210593e-05
0.0126673623007
4.02480664883e-05
-5.92490088003e-06
-0.000133837291452
0.0120191175302
0.00016248483938
0.0126810160616
-4.29392718195e-05
0.0120149922155
-9.64906374889e-05
-2.77068336985e-05
0.0126664460928
1.387171507e-05
2.16032101487e-05
-0.0126807737599
1.61721516099e-05
0.0126876607683
-1.93200226411e-05
2.85480157231e-06
-0.00014324086503
0.000167382094015
1.70888595847e-05
-0.0120386459479
-0.000108881627784
0.0120603196133
-3.1863992416e-05
1.00466509235e-05
0.0126706087105
-0.000106354534852
-0.0126339230012
6.91630425749e-05
-4.7804801164e-05
3.76001363754e-05
0.000109411413466
4.45818806198e-05
-7.39042393264e-05
0.0120059373574
0.0120013442861
-4.73825137134e-05
7.51480410298e-05
0.0120033122948
-5.03184514408e-05
2.92275279704e-05
0.0126475411367
0.0120114477467
0.0120356031382
8.61266670016e-05
-6.04866028935e-05
-5.23790405185e-06
9.41340286951e-05
0.0120615101945
-6.71810551808e-05
-9.89946191692e-06
0.0126300086499
3.06421678959e-06
0.0126446559223
1.70826626367e-05
2.09845547965e-05
-0.0120406174184
0.012062288413
0.012652050587
-0.000122901282028
-0.000109785959979
-0.000189083833844
0.000557361605408
0.203987953948
-0.000176070222024
-0.000511145519105
-6.20464854274e-05
-4.00550040803e-05
-3.28759036689e-05
-4.60398206513e-05
-2.45230324568e-05
5.04697094813e-05
0.0509158533625
7.09789689318e-05
-0.00619989889811
0.00204687250997
6.21504036141e-05
6.497990519e-05
6.042774212e-05
0.00338352729123
-0.00532055962504
0.00430906865139
0.0062690165773
0.00481117427307
0.0562978115744
-0.0172491474807
0.00476325896424
0.00531942565103
-1.93508678655e-05
-5.50230537724e-05
-6.67344264868e-05
-1.35043796391e-06
9.94922878039e-05
-0.000403608500291
0.0513887914589
-5.22959730354e-07
4.10112456672e-05
-1.72456794101e-06
0.0121422355529
0.050811823889
-4.95278968125e-05
-1.87586055661e-05
-2.71329772323e-05
-4.77531123197e-05
-6.84733010285e-05
0.0508573778978
-5.09039529113e-05
-7.52757347216e-05
-6.32517799582e-05
-5.73447875338e-05
0.000178142048963
-0.000165971208825
3.65827288669e-05
0.012081129902
-0.000142162400479
0.000158173714696
-7.65034938003e-05
2.45094805296e-05
0.000107744814018
0.0120909552706
-8.50527641005e-05
0.0121029188027
-9.20366420119e-05
9.78935753326e-05
0.000110090688574
-0.0121044840876
-0.000114333163435
0.0509199900322
-5.85291591036e-05
-7.0647283084e-05
-5.87461192364e-05
-7.40580236718e-05
0.000174664623949
0.000223263470231
-0.000198717035361
-5.06122277912e-05
-5.47060549067e-05
-4.84826417872e-05
-6.22717950218e-05
0.00010515319404
0.000262966213289
0.0509846136792
-0.000216835332296
-7.96163857181e-05
0.000101409980097
0.000117122213924
0.012092139945
-0.000127896232998
-3.66869705689e-05
6.97106530133e-05
0.000140206698072
-0.0120625375831
0.0120464775205
-0.000157145212281
4.23635602676e-05
-3.01776329964e-05
-8.67490090778e-06
0.00674553009278
-0.0141578608573
0.00207024315977
0.00206926730461
0.00117310897433
6.16671459287e-05
8.6415047673e-05
6.57995768719e-05
-0.00617463004442
0.00180117628657
0.0006143784004
7.37991970711e-05
9.20472509665e-05
7.22396450903e-05
0.0060036772629
-0.00668033389379
-0.000647456795722
0.00355507141072
-0.00493733554427
-0.00782131066999
0.00156118771485
0.00273422742602
-0.00403693370634
6.41985236853e-05
-0.00185497751753
6.15838503044e-05
6.19490704971e-05
5.02658734454e-05
0.00535701502099
0.00230220384962
-0.00544371542556
2.8364764661e-05
4.4841246241e-05
3.11196990044e-05
0.00303416797004
0.00256984552786
-0.00460502122175
-0.00299475827722
-0.0128718774349
-1.49004422553e-05
0.000129827284945
-0.000108389399473
0.0128459680107
-0.000139915260755
0.0128573127494
7.27659954397e-05
0.0121568877159
-1.72457348116e-05
-4.1926758788e-08
-9.08679729081e-06
0.0121373208289
-0.000119286765544
-2.27333494429e-05
0.012156163686
0.0128340697344
2.02228700541e-05
-0.0126786349653
-3.66783834218e-05
-2.93915448133e-05
0.0126844247293
0.0126986666851
-7.17623473233e-07
-6.50017640478e-06
4.0122201289e-05
-0.00013541050994
0.000152161920893
0.0120864929813
2.29268130795e-05
0.0120775749375
-0.000117272321413
9.980533046e-06
0.0127030643218
-1.02865458081e-05
-0.000114529559954
0.012080388848
-0.0126566718209
-5.49054675657e-05
-3.10585822813e-05
0.012663739967
1.08495843977e-05
0.0126359885229
-1.1042782128e-05
3.12107892491e-05
0.0120833316575
0.000108650505394
6.28244922006e-05
0.0120997697987
-9.40272880073e-05
0.0120884510196
0.0126490506274
-2.90892867107e-05
0.012677002646
-6.5990958865e-05
-4.57028540202e-05
4.75170520758e-05
5.79158348877e-05
-0.0126666926914
0.0126815422181
-5.01216819655e-05
7.81873305573e-05
-0.0120926782159
0.012092510417
0.000105928269582
0.000108404496247
8.08625622755e-05
-0.000101797606418
0.0126879827634
6.18618669579e-05
0.000110421851802
-3.98673406317e-05
-0.0127031090091
-6.94045824415e-05
-6.55676085469e-05
0.0127068579006
7.26990894562e-05
6.55737357416e-05
0.0127032311325
-5.6515698913e-05
7.83997174331e-05
0.0120884861145
0.000104394199703
0.000121452387347
8.92550106585e-05
0.0120830788656
-0.000139271021107
7.01429766989e-05
0.0120866766149
0.000104236865257
0.0127081609729
-5.53391921757e-05
0.0127150407791
-6.8219982243e-05
-6.3959357664e-05
7.33781270512e-05
6.18262824949e-05
-0.0127191900754
0.0127228331457
-5.04442664946e-05
6.46796863414e-05
-0.0120705420697
0.000119067613328
0.0120554489955
0.000129955454654
8.33078494381e-05
-0.00014796121291
7.38997400857e-05
0.0127192282786
0.000109121196655
-5.40117626739e-05
-0.00059154673207
-0.0494674398436
0.0493217377203
0.000672368917005
5.46786401872e-05
5.47393973784e-05
6.1535586001e-05
4.83984973062e-05
-0.000154517451783
-0.000677618350127
0.0498611303254
4.51063719381e-06
-7.065614028e-07
9.87944504582e-07
-4.54367545885e-07
2.04144998778e-05
-0.0498402268088
0.000631857816415
-0.00106280788761
-0.0499661647776
0.0500695430773
0.000888912934458
-1.6254481847e-06
-9.89041910376e-06
-8.2421172453e-06
-4.24138136382e-06
9.45163227071e-05
-0.000710579502261
-1.09236411328e-05
-4.35528863219e-06
-6.4493567004e-07
-1.10139474471e-05
0.000124456297453
0.0501863960131
0.000569985086987
-0.0501433225204
-5.74821396114e-05
-0.00382005553525
-0.0104492194962
0.0155956667719
0.00649561610952
-0.00762579305587
-5.56923298044e-05
-4.36313106186e-05
-4.23430506696e-05
-4.73639804663e-05
-0.0204186100282
0.0228566286375
0.00758517391584
-0.00431471896241
-4.10954229444e-05
-2.93058090118e-05
-1.31153481004e-05
-0.00556563908515
-8.03017901208e-06
-0.00420925145098
0.016036599998
-0.00212820482074
-6.76608402173e-06
-5.99555459091e-06
-9.45814055875e-06
-0.011459325259
0.00179005483954
-2.05928036722e-05
-0.00555254703708
-0.0221192057906
0.027501775678
0.00333093284087
-0.00307260194586
-2.10662998809e-05
-2.24716206859e-05
-2.42311837823e-05
-1.80796175078e-05
-0.00300062819689
-2.57288654423e-05
-1.71377222022e-05
-1.71519783099e-05
0.025773373343
0.00242488063267
-0.00352436109602
-0.0215953475407
0.0805408437366
-0.00800792252024
0.0159047005467
0.017680193554
0.0141267725971
0.0155145701648
-0.00612912168069
-0.0449979778992
-0.0318454487872
0.00200894660243
-0.00637047374679
-0.000446743198786
-0.00628597153666
0.016479267655
-0.00907033786337
0.0715008215679
-0.00969764601082
0.011373242561
0.0109658853615
0.0072463240392
0.00768536944725
-0.0346384600568
-0.0327292688298
0.00239779701193
-0.00207434241534
0.00170625678205
-0.00359375042752
0.0682358253932
0.0564155827717
0.00684149087259
0.00788188324471
0.00914050496141
-0.0288992507059
-0.00625231308625
0.00868651136423
0.00476014882693
0.0020176904024
0.00597460340933
0.00384082396427
0.0560576473687
-0.0135712919645
0.000219813408314
5.97249192591e-05
5.90557440354e-05
6.32692839347e-05
5.57949943509e-05
0.0491739614863
-4.33448608354e-05
-8.38292477604e-05
-0.0495044055206
0.0491454590811
0.000383410385305
6.29663227224e-05
6.83778754401e-05
6.73810438132e-05
5.93754405701e-05
-5.66581890089e-05
-0.0495105323416
3.93212493913e-05
-7.14538646442e-05
-0.0122216522743
1.30671550824e-05
0.012229128127
1.18480029077e-05
0.0122468190245
6.82353518787e-05
4.0708381874e-05
-7.55595360602e-05
-4.88213947521e-05
-0.0122310830417
8.38190665421e-05
7.11447295108e-05
8.39018124885e-05
8.49482162268e-05
-0.000351047423745
0.012275639692
0.0122069723878
0.0121734581733
0.0121560300455
-0.000231069034801
7.82379218505e-05
5.39260857315e-05
-6.92891961414e-05
-5.51521486657e-05
0.0122389546029
0.000468901049003
4.77211662325e-05
6.2651865275e-05
5.56793872837e-05
5.83002561293e-05
-0.000118237328287
-0.0496591151108
0.0496441417999
3.18014537988e-05
3.26985110579e-05
3.90149728627e-05
2.69249920122e-05
-0.000102760705606
-0.0497426955288
0.000539745856344
0.0122570599025
4.15264508383e-05
-7.3525417648e-05
-0.0122368361651
7.98657121906e-05
0.0122887737059
1.22524774437e-05
-3.07011660989e-05
-9.21574209169e-05
-0.012267490385
8.9474644488e-05
0.00093032374374
5.34980841566e-05
6.52767648824e-05
6.43274371501e-05
5.39569847033e-05
0.0491824021037
-0.000210096252341
-0.000174003634176
-0.000200991661741
-0.000165379932911
-8.39973453909e-05
-6.14851712494e-05
-7.06184353445e-05
-6.1523224404e-05
0.049574263414
2.53186241365e-05
1.69551763974e-05
2.50973336228e-05
1.80053487824e-05
-2.07769375867e-05
0.0496787038671
0.00086546114887
1.65486273603e-05
1.21191773499e-05
1.2653606633e-05
1.02476549325e-05
-9.13108039273e-05
-6.88120343176e-05
0.012253170263
9.37044012174e-05
0.0122117245794
6.3746623187e-05
-5.4546196624e-05
-0.0122308414323
0.000142644864064
-0.000132735852667
0.000100686522134
1.64954203857e-05
-1.52072495854e-05
-0.000104566201559
0.0122913716062
0.01228880195
0.000119982222302
1.35598219589e-05
-2.82196209883e-07
-0.000130559213784
-0.012291505332
0.0498327590616
1.73694915276e-06
3.01845898216e-06
1.84512907936e-06
5.57466504827e-06
-0.00116040266334
-6.89312061783e-05
0.00123379800182
-1.09532623904e-05
-7.29118804222e-06
-7.19141840474e-06
-8.27558523853e-06
0.0503547769239
-0.000172232743896
-0.00155016421373
-4.6487269675e-05
0.0122068621137
0.00016705845453
-0.000163155909045
2.119811715e-06
-2.53973547269e-05
-0.0122401087329
0.000231407553995
0.0122777096789
-0.000245564186749
0.000125885210475
1.82890096218e-05
4.15810850335e-06
-0.00014109704723
0.0122816291917
0.000145947830267
-2.08304712763e-05
3.63295438438e-05
-0.000170069236551
-0.0122761060042
0.0122846120747
0.000749686032982
1.67929268958e-06
2.88114351358e-06
-4.25201833047e-07
7.74219363102e-06
-1.11513309601e-06
0.0500847491405
1.55468517161e-06
6.60073170896e-06
7.48834772819e-06
1.83251115089e-06
1.80182123559e-05
-0.0500053420253
0.000634760557243
-2.21431192131e-06
0.0122999822026
9.46636607278e-05
-0.012299530278
0.0122946324305
1.89746228159e-05
-4.29691045484e-06
-0.0122991186297
0.000109944891478
0.0123157992051
2.4185096574e-05
-1.96702732329e-05
-0.000103042928364
-0.012319115842
0.000101870136884
0.000972141513128
-1.03135377912e-05
-2.02761567125e-05
-1.77696499163e-05
-1.25558058203e-05
0.0503062765968
8.58319457541e-05
0.0501594425447
2.22053643048e-06
-2.27324637188e-07
5.00971065196e-07
2.67317224341e-06
9.84413905049e-05
-4.52188149604e-06
-6.03923505135e-06
-1.3329470964e-06
-9.83453513677e-06
0.0502940465698
0.00074412312156
0.000115150660162
-4.23205010354e-06
0.0122914017397
0.000112752433862
-3.46438970178e-06
1.88718137898e-05
-0.0122822243281
0.000131853813508
0.0122810389989
0.000110785174446
2.77621939628e-05
-2.51964397737e-05
-0.000109407861047
0.0123118075864
0.00012986510847
2.61102420136e-05
-1.97833338403e-05
-0.000126860771225
-0.0123015967301
0.0122922547743
-1.86851252739e-05
0.0123173745743
0.000116262628123
-0.012322253065
-1.51952404357e-05
-0.0123022538284
0.0122903006628
2.25212202541e-05
0.000134460330407
-0.000933413231959
-3.69444201011e-05
-5.85995888727e-05
-5.37437907082e-05
0.0125479867423
0.00499716219665
-0.0085883519658
-0.00783562280986
0.0128244010863
0.00257769608606
-5.34925979764e-05
-4.53841926006e-05
-4.59795754547e-05
-0.00875685129922
-0.00739521444271
-0.00904520078085
-8.06335249942e-05
-6.29330781645e-05
-7.58518643555e-05
0.000412159478545
0.0179110732246
0.0154593586401
-0.00231317342745
0.0108087058817
0.00278036526313
-0.0108336711863
-0.00061535934348
0.0203824414338
0.0131773644667
0.000194616800204
0.0166149166837
-0.00250808035551
-0.0113385140909
0.0221435677445
-0.00130085829578
0.0106702715773
0.0132420607425
0.000349696686468
0.0113908453853
-0.00260368229057
0.00133741181245
0.00668405660494
0.00288057357507
-0.00401085580178
0.0159451390602
-0.00251530182991
0.00863162388504
-0.000914040692614
0.0100452850851
0.00185616218223
0.00450774018981
-5.43814161231e-05
-3.08767862232e-05
-2.15529867286e-05
-0.00576440754696
-0.00646782731927
0.00930665233611
-1.74163690871e-05
-1.7194825264e-05
-2.32609110397e-05
-0.00549639189671
-0.0025843762786
0.00335113759868
0.00802871466645
-0.00712876369371
-7.05119511483e-05
-4.2909206445e-05
-4.53948812632e-05
-0.00550132293935
0.0146726805586
-0.00299489825926
-3.48161360302e-05
-1.06476571397e-05
-2.33393483421e-05
-0.00322280279168
0.0209699276123
0.00503275728156
-2.49760213645e-05
-1.32781323098e-05
-2.83655847589e-05
0.0153277393012
-0.00293275911965
-0.0111875427028
-0.00183891780369
0.0196500056142
0.0147265596271
-0.0027566376383
-0.0106662177264
0.0191264031269
-0.00176716804188
0.00551661068145
-0.000351183777195
-9.58234435594e-06
9.30293124335e-06
2.54815124889e-06
0.0213228829513
-0.00364437220465
0.0263595678939
-0.00327809239643
-2.62196849263e-05
-1.48752258295e-05
-2.11372393313e-05
0.000801296099208
0.00450845574321
1.58136665978e-05
5.17460288235e-06
5.32239161172e-06
0.0265206210828
0.0176329697954
-0.00242057677448
-0.00226767620763
0.0165570420578
0.0180930797842
-0.0029740074695
-0.00374388259342
0.0167927104281
0.00253045974461
-0.00351596063924
-8.39801134112e-06
-2.10063221529e-05
-1.63280713354e-05
-0.00484569155408
0.0227246964583
-2.49894942161e-05
-1.88555263633e-05
-1.96639213322e-05
-0.0178532321086
0.00259161622736
0.0130237313731
-0.00923157416932
-0.00185005072827
-0.00163495511504
0.0172589392772
0.0171718858975
-0.0126673749015
-0.00184094202807
0.0026313903655
-0.000161939124802
-1.55018323836e-05
-9.81488573221e-06
-2.47273888761e-05
0.029587595296
0.0273752189809
-0.0042087698344
-2.73734381925e-05
-2.91490294411e-05
-2.76170445842e-05
-0.00208707699483
-2.461098233e-05
-3.35867611069e-05
-2.33599045206e-05
0.0299122092094
0.00228836189082
0.0183879677018
-0.00243148346074
-0.00258083586161
0.019088241654
0.0190173479855
-0.00252605542449
0.0205592939027
-0.00236448517661
0.0124249860701
7.82123507606e-05
-4.47683098393e-05
5.31327791191e-05
-0.0124518618323
5.21959129903e-05
-0.0124179309592
0.0123858952931
-3.25516444602e-05
1.17018320423e-05
-6.89221669273e-05
9.95055724717e-06
-0.0122112062853
-8.37107251822e-05
-0.0122225252032
3.07265321167e-05
0.0122298628685
6.47278784829e-05
0.0123918575021
2.58313513528e-05
-0.0122122994804
-2.9281729405e-05
-0.012446652225
0.0124299342611
6.79101678949e-05
7.56084921211e-05
-0.0124574483934
-7.91666316887e-05
-0.0124362871685
0.0124147854811
9.34943881953e-05
-8.13760111331e-05
-0.0122270129347
0.0122369114041
-7.25691512671e-05
-4.27848693671e-05
5.89837459777e-05
-0.0122199740865
0.0124014278873
8.13083439294e-05
-0.0124630146274
-0.0122144744525
-0.0123754450109
0.00011404332986
8.37947361574e-05
-9.15817144543e-05
0.0123530106159
-9.05810820358e-05
0.0123939422997
0.000113238519492
-8.92734225185e-05
0.0122272541772
-3.72100059087e-05
-7.62948051479e-05
-6.59166111032e-05
9.10910229364e-05
0.0122266430119
-7.00244639439e-05
0.0001370993045
0.0123794915114
-4.12881077343e-05
0.0122104206286
-8.39516087578e-05
0.0124712600664
5.64545875567e-05
9.12469040977e-05
-0.0124873075655
-0.0124545360496
0.000100684989149
0.0124363603432
-7.3964039189e-05
6.53778495062e-05
-0.0122236420857
-6.36358466168e-05
-0.0122496495324
9.25051266368e-05
0.0122697505911
-0.0124755773592
0.000109664932519
0.012456855078
8.03774097434e-05
-0.0122299357314
0.0124870854684
9.8965039629e-05
3.80683108676e-05
-0.0125011245121
-0.000118202502744
-0.0125031556903
0.0124969673577
0.000126467391642
-4.05138746566e-05
-0.0122555744808
0.0122790215872
-2.86313253708e-05
-7.94236947868e-05
-0.0122543109934
7.75831612206e-05
0.0124770690204
-0.012514166624
0.000108192184176
-0.0122400530279
-0.000144422802192
-0.01243795185
5.65323932082e-05
0.0124248591759
0.000155683239761
0.0124160672484
0.00011943102759
-7.04419322012e-05
0.000106856104125
0.0122525218878
-5.78755239832e-05
0.012269061429
0.000108715395807
0.0123998092252
0.000128746330457
0.0122708153664
0.000119577962305
-0.00017003324778
0.0124221085935
4.23976247242e-05
0.000183811986061
-0.0123916881632
0.000199846138527
0.0123874833594
-0.000184908849693
-6.127996339e-05
0.000120412565034
-0.000108410110181
-3.20795797954e-05
-0.0122561198363
0.000147257724493
0.01224084379
-0.000158979476381
0.000216397111945
0.0124274812434
0.000131805865291
-0.0124643735157
0.000161847750791
2.36748548087e-05
0.0124597849525
-0.000135874223111
0.0124892347802
0.000145347402471
-3.0626090846e-05
0.0122787311432
-8.85112266569e-06
-0.000115108816264
0.0122957426373
0.000108902855464
0.0124892659211
0.000171068240984
0.0122832683453
0.0124608058304
0.000188214854407
1.11728776171e-05
-0.000219850813199
-0.0124925508681
0.0125007861011
0.000223430302032
-2.22243229442e-06
-0.0122751946615
0.0122689713062
1.91532731861e-07
-0.000122799272214
0.00011337567918
0.0124677372947
0.000195322415546
-0.000259487432171
-0.012436726805
1.56251781027e-05
0.012457945356
0.000277182126387
-5.46229437315e-05
0.0123909225249
0.000228086646917
-6.560811169e-05
-0.000212407399786
-4.69728481463e-05
0.000192892144751
0.0122153419188
-0.000195497469784
-2.00502318092e-05
0.0122329358535
0.000165648255643
0.0124144379036
-7.20737437052e-05
-0.000257868639138
0.000247060887307
-4.82705133104e-05
0.0122408258546
0.000187136221624
-0.000289656664176
-7.68588728302e-06
0.0125120046919
0.000308330541363
-6.49489758767e-05
-0.0124790501646
0.000318743845042
0.0125628099189
-0.000328753548011
-9.91519819751e-05
-2.46746366057e-05
0.000215405156774
-0.000225169701352
-0.0122514770739
2.06251805359e-06
0.000211481117782
0.0122790777267
-0.0002907698286
-8.83440390829e-05
0.000200155819574
0.000331035237042
0.0125766535423
-7.49077135093e-05
-0.0124744592752
0.000273366242376
-1.54501640757e-05
0.0124954770026
-0.000249355579836
0.0125064185026
0.000250864182111
7.24719509918e-06
0.0122602018747
8.47564859111e-06
-0.000152758098513
0.0122766481424
0.000134461942422
0.012522175462
0.000271602113157
0.0122584131259
0.000295947325649
-3.41439430134e-05
0.0125309513282
-0.0125456394052
-0.000310661501844
0.000301917613234
0.0125834638009
-0.0122666502287
3.96113967055e-05
0.0122839910795
2.81428292888e-05
-0.000162719292189
0.000140145698472
0.000293549546889
0.0125827616209
-0.00016892260883
-0.0125327345279
5.39181066571e-06
0.0125368546996
0.00016392880454
0.0125124921476
0.000147234206502
-0.0125172632633
-6.10054379594e-07
0.00010124093832
0.0123014302167
-2.46004466978e-06
0.0123096205608
-0.0123098494755
9.14609124997e-05
0.0125150447919
-0.0125352681528
0.000146808733356
0.0123108210514
9.59762897201e-05
-0.000190341703451
0.0125432028781
4.77355201117e-06
0.000180901759446
-0.0125217584707
0.000211966328041
0.0125317898523
2.28406038636e-06
0.000104922428584
-1.34236833165e-05
-0.0123058210934
0.000104189298006
0.0123039212421
0.000196750173682
0.0125526329686
9.83706441297e-05
0.0125590424471
0.000165941002862
1.12032353078e-05
-0.0125537971088
-0.000176766604732
-0.0125698828374
0.0125767739138
0.000156809048893
-2.01497663664e-05
-0.0123134881888
0.0123097187193
-1.23121134158e-05
-9.48202715902e-05
-0.0123229551572
9.20507241785e-05