/*--------------------------------*- C++ -*----------------------------------*\
| =========                 |                                                 |
| \\      /  F ield         | OpenFOAM: The Open Source CFD Toolbox           |
|  \\    /   O peration     | Version:  v1906                                 |
|   \\  /    A nd           | Web:      www.OpenFOAM.com                      |
|    \\/     M anipulation  |                                                 |
\*---------------------------------------------------------------------------*/
FoamFile
{
    version     2.0;
    format      ascii;
    class       volScalarField;
    location    "6.25";
    object      p_rgh;
}
// * * * * * * * * * * * * * * * * * * * * * * * * * * * * * * * * * * * * * //

dimensions      [1 -1 -2 0 0 0 0];


internalField   nonuniform List<scalar> 
28582
(
19553.3174536
19550.6303454
19553.4926789
19550.3160286
19553.577221
19548.4916744
19556.7416179
19547.6298695
804.436163847
910.603797542
0.516309395478
19552.2461453
18085.485404
17790.6527054
19544.3368802
19543.6490086
17689.0562656
19523.2756304
19521.0129634
19555.5914781
19548.9191612
19548.4358781
19556.0431504
19548.4593566
19548.2650109
19557.2764629
19546.1038155
19560.5950886
19543.5118421
935.139842371
0.136999251886
-0.131128873382
19558.545664
19559.0268853
18308.8525253
18131.381308
19557.2652118
19544.1446794
19542.5739965
19543.3758198
19523.2817793
17455.8922991
19520.344447
19523.7193496
855.616566208
905.676381338
14.6031025651
14.9828249851
890.825713634
14.9436614286
19554.7680591
19552.5079957
17994.2659375
18117.4726538
19556.1678517
18029.5915593
19551.1741934
19547.6960199
19541.456962
17892.8915855
17811.1819312
19541.7909627
17923.9194699
19546.7254823
19529.8641776
19535.8338906
17591.1623602
17702.8666154
19535.759446
17595.1097245
19530.3311618
19524.32328
17456.857705
17448.9957214
19525.6595254
17516.2616246
17517.5924669
19526.2648986
19519.619513
17421.282327
17357.0543024
19523.6583172
17440.9317097
19522.5754354
17491.6337878
747.365176788
8.22930403629
697.039057731
746.257594709
5.51584594099
7.60826784901
935.866479499
9.07203577285
9.82423543469
983.451940946
7.54097895788
971.161761542
8.45813898315
19557.8429032
19559.6781571
18262.4821581
18296.2435678
19558.3993886
19559.161289
18249.7480829
19556.123081
19554.0821053
18202.2741425
18123.5110236
19556.4562796
19553.9295544
18191.1408296
18204.0250495
18143.343181
19555.4638474
19556.4543712
18126.3306117
19554.4595249
18191.7099041
19524.4551328
17431.2822952
17414.5987534
19525.1832061
17424.4156378
19526.5302055
17405.2001306
19527.8521488
19532.1223418
17438.0297331
17437.5969887
19529.324577
19530.7814029
17418.7391632
19521.3558767
19519.0322311
17390.9226045
17333.7486595
17342.0587498
19522.5107879
17396.8485365
17351.9934685
17377.7987512
19526.4899023
19525.399368
17420.2000629
19528.091994
17404.95328
19547.0722826
19545.9622424
1009.24709924
-0.373503608179
19555.8254048
18063.3732202
19545.5433029
19547.947836
17464.8926544
17406.1738615
17474.4665425
19549.8478428
19550.9939774
17507.915225
17547.4531175
804.875145424
1022.54962263
1062.91685192
6.48863634875
5.46772836706
3.124129999
1072.24510645
1075.83076888
19548.3016195
19552.8785579
18051.1689799
17971.9433925
19551.8245478
17958.9890484
19549.2031095
19535.1732851
19534.4150596
17472.753091
17445.3034754
19536.2877865
19533.1796059
17453.2277677
19532.7890397
19529.7998868
17431.1562718
17426.5839068
19530.5503393
17442.4530732
19532.8493332
19534.9891956
19536.9291782
17489.4866524
17445.744398
19536.886938
17459.9652347
19535.0400016
19539.5747318
19538.616545
17517.8317964
17535.4038201
19538.305459
17536.7770228
19539.8325364
19539.8792576
19539.9415542
17543.3490128
17549.1264369
19539.3175536
17541.5468922
19540.4400265
19571.0894496
19565.5639221
19565.6031485
19563.7165782
606.890988254
620.152798898
649.3467347
671.066444698
654.015420164
-0.0248171305308
0.456109110671
-0.0896667332907
0.170567102758
-0.139054241796
0.00388402988258
19574.6674873
19573.1421405
18678.7359164
18562.9992973
19574.8574665
18531.8630415
19570.1369894
19567.4284494
18514.6398839
18405.0390973
19571.8957824
19567.7968152
19568.1337664
18509.9690301
18539.6350356
18376.5171034
18380.9079458
19567.9470097
19566.7919265
18552.4350179
18541.4334823
18392.3616365
18413.9584498
19565.735474
19564.4375221
18358.7058516
18350.3333952
18331.1595763
19565.3457084
19564.5227632
19564.5388932
18355.233027
18379.6427892
18332.9407577
18353.1239046
18339.7175486
18352.9466132
536.481084131
556.155167633
583.401693141
1.92176012119
2.09687443437
2.40630627247
2.47049174033
2.88292831117
8.51437159133
3.56650574404
8.92049315302
578.720924406
597.92596924
619.052314995
636.546309023
644.700649826
2.69255054053
2.33271729411
2.41496738166
1.85896209127
622.30262042
647.296016905
646.180108524
2.87434028519
5.99479189293
2.07948816874
3.08590168132
662.381567295
657.803416548
2.15613904519
1.45897789251
1.35498441514
667.829986398
669.31888521
668.181781941
1.56869866743
1.91148519754
1.46031112587
1.65743188579
19571.410242
19571.8079822
18701.1767024
18667.1010249
19571.0201009
18703.3020347
19571.5889973
19570.0470095
19568.1319867
18622.7987424
18606.1412348
19569.764045
19568.1823958
18666.9521593
19571.0033872
19568.5838112
18582.1701806
18531.6199466
19569.5167795
19569.6907143
18551.1411612
19563.2321931
19565.9087564
18530.7668356
18450.9189763
19565.6302493
19564.159257
18474.4751625
19561.8837654
19561.9180779
18439.5570808
18424.2937883
19562.6187857
19561.221253
18456.5346943
19566.0086541
19566.9225824
18519.7538675
18456.7124406
19568.1089024
19564.9780923
18470.2423618
19567.2157269
19570.4592214
18531.9869935
18486.6204486
19569.421974
19568.2444575
18479.8146196
19564.6201787
19562.626215
18430.7343859
18365.4011696
19563.7189236
19562.7824718
18427.4610828
19565.0332718
19563.5503267
18433.7383791
18370.1324674
19565.3548818
19562.9920112
18429.9947673
19569.7088614
19571.2825158
18565.9232175
18496.150268
19571.6013603
19569.024632
18509.991048
19569.4786226
19569.6303742
18556.9176172
18507.3094394
19571.2013386
18510.1461794
19568.6248421
19566.9105514
19564.2267638
18444.0614967
18404.9233346
19565.9629585
19564.9916661
18460.427293
19567.5774013
19565.6112855
18460.2654944
18411.7570863
19565.7865653
18463.0245548
19567.1664743
19561.4819427
19562.0064974
18341.768821
18362.3028385
19561.8695081
19561.4571046
18338.06928
19561.5775288
19562.302185
18344.8296807
18329.3124225
19561.9163167
19561.7724174
18327.4975674
19560.8402599
19561.2159162
18328.0300379
18334.2883334
19561.2632236
19561.2200151
18327.3396951
19562.6153071
19562.8140504
18362.374257
18336.0676119
19563.502202
19562.1593978
18346.4542413
19563.0779433
19564.6083278
18372.2644216
18363.8352356
19564.3324602
18354.0050268
19563.3580493
19562.4311236
19561.612288
18332.6382131
18336.7464481
19561.8358034
19562.0253656
18339.242666
19562.9699842
19562.5333513
18355.4574083
18343.5286709
19562.329293
18344.9411013
19563.1293919
19561.4355295
19561.5294046
18343.9845337
18349.1964756
19561.7959659
19561.112648
18350.9832763
19562.0611752
18348.0980003
19562.0092238
19552.4028426
19549.8063118
19548.6999491
19548.3029806
19548.1895827
19550.9831383
19552.4993784
19549.502646
19548.3291504
19548.572326
19548.6174494
19551.1093181
19546.7257639
19548.610223
19542.375755
19544.9879256
19547.3669159
19549.2398654
19552.8528423
19546.9912279
19547.5015916
19549.2791871
19548.1841041
19547.9269988
19548.1260849
19548.3573037
19548.3593848
19548.9858857
19551.9949523
19549.6053345
19548.4873509
19548.0434992
19547.7207516
19547.3713867
19547.2290581
19549.1139687
19554.3626561
19551.2199959
19549.3219645
19548.7087644
19548.4811232
19548.0877857
19547.7957
19550.0942211
19548.3912887
19548.042383
19547.672959
19550.3484437
19545.0355449
19547.1162214
19546.0652392
19543.9320499
19543.1307338
19547.544881
19554.8310962
19530.1291448
19548.2083594
19549.2251186
19550.2499317
19548.4569352
19546.4127159
19546.5223586
19546.7725479
19540.9729354
19552.1139009
19550.4977295
19549.0389509
19547.5758373
19546.8025879
19546.4985867
19545.8835351
19545.7591489
19554.7934745
19551.6898723
19549.3211299
19548.4495527
19548.2124505
19547.9108735
19547.4653454
19549.0386421
19548.2022879
19548.1778139
19547.8897919
19550.2010467
19544.0220273
19547.2724067
19547.7987199
19541.5948962
19540.4255048
19546.5217855
19554.1145141
19524.5686764
19548.3841988
19550.957495
19546.4748905
19543.0640276
19543.7889346
19546.0488787
19545.2638281
19535.6169012
19553.9922541
19551.9553362
19548.5973155
19545.0395746
19545.3700156
19546.1572727
19544.4083385
19543.0121594
19559.8649981
19556.347267
19552.2278854
19547.8196622
19545.6382584
19546.5308377
19547.0301183
19546.1718667
19546.7267353
19552.5428569
19547.9930178
19546.1666882
19547.1127602
19547.6914501
19546.9921056
19548.6795048
19548.0798138
19547.8314265
19550.0543087
19547.608236
19552.6794988
19551.6728337
19542.0829429
19538.9144883
19546.5219961
19552.4524218
19555.9551907
19551.6205965
19550.9077697
19554.1108132
19550.2891521
19540.7430817
19539.5199694
19546.3926511
19549.1082608
19544.4058738
19564.2917389
19559.108512
19556.2413766
19556.5921337
19551.8112895
19542.0532784
19541.688153
19546.9095446
19548.3027183
19545.2563947
19561.6407934
19559.6121858
19556.8071158
19548.9569437
19542.6172602
19544.1160135
19548.5583272
19549.6975304
19547.0171895
19555.4981083
19547.2577067
19543.362875
19545.7835922
19549.5055381
19550.2373787
19548.0860974
19549.7312911
19550.681106
19549.3160489
717.947867488
787.917689843
977.484681413
1068.98711936
1103.9682131
1134.27448082
1139.67981955
1175.92882513
628.528222547
640.381928278
697.201459757
774.752026184
922.492433418
1041.26182786
1117.27863116
1176.47246651
1160.13778276
1183.56792457
660.499942961
652.355412937
666.581022038
734.472263807
884.779171715
1002.67065139
1074.64584136
1142.49193387
1139.16530248
1155.76148901
653.175922246
672.078818265
766.557235043
904.233249149
968.079221224
1012.03276323
1064.67348026
1080.89173398
1114.86471392
803.622473933
906.350550876
944.742522303
987.854037657
1043.03132648
1057.66036347
1078.38518508
1059.85250092
1062.90557301
1059.0657777
0.317125980314
-0.0845353142716
-0.201476735772
0.030416735752
0.455849300736
1.1184738364
0.0617452506916
-0.16367813589
-0.34241936427
1.30477226585
0.192599499462
-0.0206591536367
-0.182159675306
-0.0154855983009
0.337497614939
1.02282557049
1.36020272034
-0.195316061219
-0.401706866583
1.64392036084
0.304800696482
-0.0243907398436
-0.136596857669
-0.0144068123464
-0.0418707374428
-0.262069177366
0.469106126477
-0.136968171743
-0.377717357847
0.918239698105
-0.0691524138422
-0.0791808975851
0.0674349172968
-0.111705050861
-0.218543108961
0.405759578202
-0.10758184647
-0.346311671724
0.673368769591
0.271856843273
0.460746442441
0.773666302119
0.572500408941
-0.149154708529
-0.31595636036
0.949171454658
-0.0916868088182
-0.252583070195
1.25365762023
19547.9369341
19546.3408156
19547.8908767
19546.2130142
19547.8356528
19546.3433986
19547.7834789
19548.4949653
19548.9840537
19549.0790499
19548.828383
19544.1211026
19548.4229321
19546.3185602
19548.3063902
19549.6821071
19549.191242
19547.5868276
19548.7204469
19549.5246241
19549.5419409
19549.1566251
19549.4856625
19549.5197843
19549.311613
19548.3723556
19549.9111495
19550.1591822
19546.4141982
19546.0033778
19547.1306869
19543.9357806
19545.8154247
19545.4126331
19547.0002598
19546.6377754
19547.3179696
19547.646932
19546.679096
19546.1383796
19547.6064327
19546.7405482
19549.0616246
19549.7644901
19549.91409
19548.1368194
19549.331227
19550.0944646
19549.9246283
19548.3946461
19550.0026625
19552.5475937
19549.9089577
19545.439074
19549.7037601
19551.616252
19546.2124149
19545.8772258
19547.6054189
19545.0446265
19547.7377255
19546.7802011
19548.7902883
19547.1466442
19548.6218952
19548.527428
19549.2903263
19549.6647534
19550.2012668
19551.7921543
19549.8512986
19550.612988
19550.6604845
19549.4349441
19551.0127388
19551.5550645
19552.0500754
19546.9474675
19550.6246266
19551.4622557
19552.0433533
19550.9129836
19552.3989213
19553.0658191
19545.239815
19547.8428392
17994.3856426
18075.5111531
19550.4040748
19549.4509678
19551.5070316
17992.7753009
18011.6589963
18043.9679661
18042.3214495
19553.5099474
19553.1285691
19553.1059866
18018.7772422
17979.8534642
18049.7237288
17935.0770036
19547.2985102
19550.1836861
19545.4622825
17894.9557796
17311.413003
17818.246972
17281.2349179
19539.0305041
19540.7457402
19538.0938979
17106.3410027
16931.5662581
17107.1203851
16933.6252365
19542.2409607
19539.2053115
19542.5027562
16999.6945973
17324.4266173
16985.4927005
17254.8533985
19549.7475433
19546.282583
19548.8128835
17385.3019353
17461.759605
17313.3686888
17408.2480772
19554.2415877
19550.5212242
19550.1985811
17469.0891789
17356.4321269
17406.7301418
17228.1826059
19535.7958209
19547.1923743
19538.0470964
17345.0276443
16887.2291075
17203.249381
16826.8495165
19564.5489495
19560.5278107
18501.8412062
18279.7086723
18407.2242495
18328.7912785
19550.3995897
19556.389471
19553.9830535
18223.7613631
18114.1396695
18285.8016943
18202.1426526
19552.6325566
19553.4387026
19554.5366328
18068.9597829
18062.3737123
18187.1842923
18170.1179105
19553.5253029
19555.643254
19555.1308531
18072.0300168
17981.7783112
18173.0102998
18145.508668
19545.1038638
19552.3009458
19547.2107067
17859.8945642
17341.9804858
18012.7295148
17403.3028013
19538.5811288
19542.4669558
19540.0346991
17166.975397
16979.5278145
17249.8472202
17127.0087656
19543.0959935
19540.9137975
19543.9815936
17011.339989
17235.8709512
17144.8442193
17275.5792002
19548.6052058
19546.7767147
19548.4097467
17292.7967521
17391.8341227
17316.0506841
17395.4341281
19547.5200482
19548.3542078
19546.8517395
17387.7619215
17200.7863015
17385.8614182
17192.1234611
19541.2611231
19544.3027421
19544.4568044
17180.2265848
16845.5528476
17174.0694527
16873.2671595
19561.9754535
19563.9342491
19562.5556669
18376.5258626
18330.7146925
18353.0743309
18339.3605844
19557.1308857
19560.7245234
19559.2103827
18305.8866518
18223.3317968
18332.9485616
18303.2123484
19556.4837281
19558.2955305
19557.8910078
18220.893494
18207.3357332
18303.2438027
18282.3017873
19555.3257126
19557.0816494
19554.6680898
18205.1156515
18163.9111548
18267.054362
18035.5546477
19546.3177783
19550.6784518
19545.6689625
18024.0617679
17397.3681072
17861.7041203
17317.8085778
19540.3705257
19542.4117169
19541.3522574
17250.8614368
17151.0910307
17234.4574926
17257.4134499
19544.5115536
19543.1175736
19545.6918786
17170.5355306
17296.2973716
17298.8066031
17418.232112
19548.3839771
19547.8613361
19549.0935459
17334.7085877
17410.6825633
17454.0568868
17503.73619
19547.1162956
19549.1457084
19548.0893471
17408.6552365
17226.0706719
17501.3188742
17337.1108812
19546.3944538
19546.2839985
19547.6664748
17201.1225237
16864.8234796
17295.7929552
16902.386228
18352.6262163
18342.8721273
19560.5764766
19561.4000655
18338.8882259
18319.3710324
18346.7486749
19558.6559933
19560.3879375
19558.739622
18315.9949017
18290.3253253
18321.9155167
18155.4184311
19553.3916885
19556.0736112
19552.0610196
18240.6998932
17949.9890843
18083.8704229
17815.8201319
19544.6801393
19547.6994315
19544.23393
17800.9231738
17327.9287839
17686.2201069
17354.687645
19542.3975054
19543.0138358
19543.3814879
17272.2379018
17303.7304569
17338.0355278
17412.747675
19546.5170405
19545.2585419
19547.3883701
17342.0860217
17454.3815665
17447.9154164
17526.0217363
19549.7705418
19549.197461
19550.3558514
17489.3201319
17527.2747955
17550.6569828
17582.2684179
19548.6821923
19550.162278
19549.145046
17532.4630601
17378.153225
17565.5567676
17397.1401317
19548.6722607
19547.5510799
19549.6896753
17328.9596259
16919.6095959
17365.7859239
17014.9481659
19551.3691382
19551.5246474
18056.6285528
17790.0088114
17767.4000908
19544.2249908
19547.34639
19544.446112
17667.5777869
17365.5122688
17667.3131142
17435.3913961
19544.0220176
19543.6735113
19544.3942961
17361.1869544
17433.493137
17430.3301449
17472.1140149
19547.7730083
19546.2140127
19548.1542204
17465.2650928
17526.8110455
17483.8718826
17515.917367
19550.4882947
19549.75849
19550.6969537
17550.6707741
17578.5992387
17538.1456937
17567.1365128
19549.2146502
19550.4913512
19549.5581037
17560.7250713
17412.9332817
17548.6043131
17440.4977028
19550.7977164
19548.7419899
19551.8684877
17405.9538053
17070.7846442
17457.8727705
17221.7761769
19548.0177825
17505.6652102
19550.787878
17530.8153717
17562.7377234
19549.8352276
17542.9999949
17437.4567967
19552.5427207
17465.5388752
17258.3069226
9.57177270942
8.02193373987
9.88445236159
7.44765737367
674.627779748
660.441075151
3.91012831013
0.7899739571
3.24992719741
1.08331768777
752.982561235
709.887340737
749.312789421
0.942448895792
3.02234730854
0.861029550122
2.13533519452
864.542555833
787.50775394
868.969403349
6.1820017115
8.75903371984
6.07980503079
10.0687502391
1044.53644584
957.039798875
1022.88451617
14.0492913195
20.4997624084
15.126258832
20.4049005232
1060.82064969
1067.41857108
1073.23274195
24.4283153676
23.6012932699
25.6573325908
27.3927332478
1114.95710526
1119.9905056
1142.80920203
12.0663820435
4.5753878901
16.3634034169
5.6062970092
1141.0087899
1162.11412337
1159.44562055
1.45745360833
1.09388272422
1.52890762125
1.23231736885
1167.16553944
1154.19430415
1176.66323013
1.29955018589
1.67095638174
1.54545791495
1.98700758428
1161.60953877
1184.43124464
1174.17105345
4.66363393641
35.5415145401
5.67093438036
40.1684746244
629.956934574
642.5012973
644.682488574
7.87811459219
5.88381557343
5.84156410117
6.06639150668
649.586634987
648.822245405
655.484588364
3.28787903354
1.86490085071
4.62974150296
2.80647129304
735.848759731
679.276771604
710.059086532
0.783198154777
0.665186136843
1.34100952911
0.66475520817
843.304194216
749.783980437
811.45022384
2.25957657715
8.61951629675
0.959015165935
5.05508589858
990.656152751
893.320313672
970.958172659
14.4801814551
18.8708470402
13.1617003257
17.8963474004
1065.29067862
1017.98186774
1040.85316078
24.8335255586
28.2990138201
20.9546679828
22.6068045336
1153.09916734
1092.07536446
1144.85188778
26.787585722
7.52351647256
26.013084124
7.82197476452
1168.23801851
1169.66375602
1165.84119728
1.59891500785
1.32754182935
1.5441247568
1.30856042193
1179.1402152
1157.39042867
1170.87573377
1.73090766046
2.25700596908
1.78212029928
2.26282398037
1171.8042689
1173.21186063
1163.53960485
6.91874416737
44.9778015384
7.04535768265
46.0494850272
656.489582208
661.611767364
658.027849435
3.79479402956
6.5117236656
2.53814801957
4.8308469456
658.889354222
654.70878818
655.842007544
5.44225724388
3.36021204813
4.55265289163
3.13919492098
689.416365226
664.641640265
690.020365174
1.50722284218
0.741800175672
1.62098279292
1.03434498607
800.434624146
738.330591794
817.893009
0.820791322276
4.35197198548
1.66836461841
6.75529326638
960.256280154
894.697381523
958.56020469
10.7605064064
14.4843910274
10.2419948554
13.8836887605
1030.18386888
983.75933033
1008.87012829
12.7430200976
11.5922276451
11.9203026178
10.0244144423
1128.83485996
1043.8107917
1097.20491193
16.4823359435
5.94405023238
13.4802879147
5.02404777123
1146.45967855
1101.25052906
1110.4299187
1.22293440946
0.987734318709
0.957453242975
0.740063630099
1152.87895876
1110.25494729
1128.87143406
1.45075983697
1.85524005344
1.08547952018
1.42244535803
1174.49417193
1134.16565447
1159.75192672
5.34758068585
33.8878023472
4.38000013793
30.0205453038
658.822930482
659.893520223
3.77768733383
2.18547117207
2.67216385225
706.036371472
688.273954729
732.9907932
1.64571590605
2.11830454468
3.62118962263
5.48043751396
837.858850176
789.559115032
852.476201629
5.58854738097
8.7296698672
7.75629811179
9.65485750145
954.174836423
909.126184796
947.756453595
10.4891793508
13.219982867
11.0095482452
12.8196753114
987.420525555
957.496973465
970.299832539
11.3522364366
9.33075535333
10.8411893508
9.44589955536
1061.49014987
992.589608999
1039.45973184
13.48316239
5.28633222343
14.7923216693
6.12316145057
1076.16916148
1045.88028763
1053.41327625
0.923169798065
0.699240169164
1.21464887107
0.946842975219
1105.84799119
1066.77849374
1088.29364831
0.922567000609
1.28821967705
1.59673401074
2.05070814419
1153.48667014
1097.40891154
1133.85353965
3.83964524252
25.9233107271
4.43168391626
23.4208753714
858.620018603
860.041804043
9.62870291158
11.5428175262
10.0580092666
12.1749517492
937.167941543
899.118751513
922.681472969
13.6750280959
16.1942109751
15.0859927572
17.066485164
960.139537778
929.877100581
954.503749185
16.7319839696
16.6712401146
18.9094824477
19.9863422157
1034.2566156
993.017555853
1038.80949213
18.2269606971
7.89224739958
16.7708182648
8.43350264997
1047.80871953
1049.05174944
1051.20625847
1.89417989786
1.92310548131
3.05821353527
2.88291622004
1074.11527654
1054.21887432
1065.14919584
2.40747483349
2.64091913995
3.24965511905
3.49029176006
1102.12262784
1062.06270767
1069.43802884
4.83984770144
26.8535906932
6.26040566555
30.0719463985
1050.18270974
3.8516904877
1062.17401513
2.66293324542
3.32288506332
2.21032509128
3.02087137746
1069.81789375
3.70237077557
4.13334739054
3.95042119346
4.94459883548
1047.41844075
7.12420042395
35.0625963801
9.16106615759
36.8818853282
19546.4413147
19546.6874948
18020.9131345
18008.1880321
19547.0180962
18038.0625516
19546.2332538
19547.1568556
19549.3772409
18037.3723965
18086.4079875
19547.7642476
19548.4429579
18068.8076906
19548.962182
19547.5054791
17999.2666762
17993.2870601
19547.9779531
17997.8159511
19548.4161971
19549.9807963
19551.0546791
18002.5913524
18018.2891963
19551.3559693
18004.2483933
19549.5694047
19549.1071783
19549.9978628
18009.8824089
18033.7885433
19548.3854153
19550.3218582
18012.4042825
19550.065048
19552.4374777
18029.5984429
18035.8368697
19551.5499108
19551.2729323
18017.7668465
19554.1731706
19552.7138711
18021.0623306
18029.3349663
19552.9093053
18020.7391488
19554.4090024
19554.2945523
19553.4531828
18009.4266037
17939.1863813
19552.3535417
17991.8312763
19555.1363661
19554.2675086
19553.6097652
18041.1607706
18048.598959
19552.983487
19554.7380377
18028.8782703
19554.7092567
19552.0906218
17923.6538457
18008.3617389
19552.901289
19554.664044
17986.8114947
19537.9894147
19548.5842995
17751.1726291
17836.0653776
19546.0747257
17686.6449482
19540.6359579
19528.7200762
19520.1568735
17538.7691158
17260.5460065
19516.6965735
17487.3346374
19530.8847187
19538.2715901
19547.1335695
17815.838926
17661.9670944
19547.6090218
19538.3016829
17662.3844205
19526.8929458
19515.0256172
17268.2947695
17482.333432
19514.9756025
19527.4988868
17479.4765793
19500.5417413
19509.8261559
16918.3911453
17043.9806839
19505.7776254
16869.1513354
19503.4673381
19500.8088871
19508.1992415
16878.30731
16903.5143226
19506.1948805
16846.9631985
19502.6782262
19500.0833219
19504.3741041
17063.9463369
16945.1169253
19505.2845807
19498.2870111
16903.0544168
19499.5256911
19501.8347554
16920.8960095
16909.9936618
19503.7993808
19497.5147067
16877.7073146
19518.0280846
19514.1405958
17093.2649141
16979.0354024
19512.4650437
17065.5934145
19519.2401763
19523.2501479
19530.5672338
17205.6707426
17293.0636611
19529.1296497
17171.3640347
19524.2483759
19513.6435844
19507.1831456
16982.3765962
17059.8397051
19508.3430723
19513.0210154
17057.5132226
19519.5884832
19525.3225146
17267.4628061
17150.5871178
19526.6137226
19518.850907
17153.8142492
19536.5189163
19535.713112
17410.0860675
17359.8575846
19534.2396821
17386.5303627
19537.9680987
19537.6183597
19538.7312722
17428.9843506
17441.3573596
19537.6395345
17407.4070667
19538.687929
19535.7339304
19530.9818496
17333.9789962
17345.4825695
19532.6695204
19533.8970544
17363.805347
19536.9281144
19535.5266818
17421.6756395
17373.029444
19537.372223
19534.9328973
17386.8210571
19535.4482183
19538.7779827
17464.9266681
17447.8052472
19537.2559094
17443.3792645
19537.9379768
19532.4321993
19530.8135053
17421.3199888
17328.9101592
19526.6681764
17397.3626257
19535.3318893
19535.4652401
19535.6485283
17425.2770915
17389.4059033
19537.0509222
19534.5490306
17416.6661278
19532.2080248
19524.8197857
17275.8823354
17317.6609499
19526.6083428
19530.9770806
17356.2797135
19507.9068678
19525.1355188
17241.2384308
17315.1363732
19519.3795402
17208.6342051
19515.5177572
19487.664704
19500.1251771
16778.3646786
16868.3326951
16750.2805691
19495.0730286
19496.9548713
19507.4999105
19516.9114107
17253.3455061
17094.8118593
19519.1730508
19505.0518651
17140.4003831
19487.3061026
19499.1040859
16858.8318409
16644.9394701
19483.1274314
16685.9661173
19498.7053496
19563.5243251
19567.3173668
18444.266019
18485.6892927
19563.7719839
18441.4495881
19566.845963
19560.0801022
19555.5162803
18362.5571034
18286.1801227
19559.3894456
19556.2574623
18370.8366367
19563.4451012
19564.6765541
18445.8000735
18391.9340742
19562.8736972
18411.0329103
19565.8590169
19560.2526907
19558.0120575
18293.106916
18369.7446059
19557.1492191
19560.3719025
18354.5271613
19552.382097
19552.3477745
18168.8245213
18240.5929975
19550.2901025
19553.5497808
18212.2003748
19551.1818996
19550.4304466
18138.6103522
18154.6427699
19549.9096715
19551.1089483
18181.7362226
19553.2588291
19555.9606219
18258.7195572
18244.411854
19554.8169532
19554.5501521
18227.3046287
19552.4766069
19552.8750735
18178.6474381
18221.3900215
19551.8963289
19553.3728188
18200.6231535
19550.4986016
19550.5413565
18052.0459875
18114.9083602
19549.961675
19550.7790106
18087.3520165
19551.2459055
19552.1267942
18055.2428088
18091.7869375
19550.5353352
19552.722936
18086.9104274
19551.208256
19552.9376862
18155.2501808
18182.0058357
19551.404092
19553.3716421
18130.4485444
19552.1174771
19555.3294049
18132.3786373
18172.8817411
19553.4684931
19554.1493828
18128.3372044
19555.6294497
19553.6772408
18095.8906097
18101.2958255
19555.0892612
19554.446995
18117.7356355
19555.5216829
19552.4485122
18061.2649702
18034.8879714
19555.0361426
19553.1570251
18092.5768817
19556.3089829
19556.6663847
18139.8237707
18179.700564
19555.0151456
19557.9245191
18149.9608581
19556.3749856
19556.3898427
18106.5247372
18176.4609179
19554.5358757
19558.1502927
18144.0636768
19541.2305319
19547.8726449
17704.9991402
17910.8351145
19540.2074892
19548.2752726
17746.3385055
19532.1765837
19518.2226883
17527.4035283
17383.5258587
19530.4588463
19520.6013977
17566.4458123
19543.0861892
19551.7922182
17970.5370098
17823.3479766
19550.0742083
19544.479626
17786.9553077
19534.573976
19525.727682
17393.9448221
17606.9275497
19524.2143027
19535.7257316
17587.9466361
19501.2821848
19505.9308258
17016.5567769
17217.6772143
19497.6697136
19509.1563676
17074.0292241
19495.7721655
19497.1085775
16964.8292539
17032.7454398
19493.8535717
19497.9169905
17048.5092837
19508.5356501
19517.0347496
17237.7235252
17122.5363294
19514.4939655
19512.2129627
17105.6651776
19503.8331505
19509.275872
17085.1191161
17122.4360656
19505.3388194
19509.1307973
17088.4614538
19506.3554227
19501.5624957
17068.3241475
17049.8981077
19507.5730598
19501.2320376
17094.0084332
19512.6138656
19521.5707434
17145.5000193
17240.9195152
19514.5159258
19519.1802565
17158.0318341
19511.2235018
19511.0406148
17101.2812629
17178.992271
19507.6298139
19513.8716974
17135.6308332
19515.4975633
19520.9972398
17252.7496852
17220.083658
19520.2675634
19517.2096531
17184.6448118
19528.4677778
19527.088637
17328.2300797
17293.553455
19530.5990527
19524.5769594
17326.1263186
19530.7054757
19533.9482959
17359.3981961
17384.0642573
19532.5998818
19532.4101751
17352.3858683
19527.8633793
19524.6213666
17297.7719287
17344.4157171
19524.4443279
19527.8261563
17326.2184687
19530.3264975
19532.1438394
17382.4893786
17367.2576904
19532.4591312
19530.1772582
17351.7009291
19531.57075
19534.2683047
17367.4462991
17376.4509611
19532.6175208
19533.2366101
17348.503312
19528.4005551
19522.7902351
17292.8762806
17177.1954179
19528.7191206
19523.3089365
17270.2718043
19531.4911394
19533.8878858
17372.4602211
17355.0444066
19533.3448785
19532.3107208
17342.7652468
19527.9735732
19523.6353819
17181.1576278
17280.6050995
19522.7368706
19528.8183468
17268.3464467
19505.3923783
19515.3852718
17078.5009865
17156.8306067
19503.8235737
19516.5773222
17059.1259918
19484.787921
19499.7534552
16655.8798256
16839.6445242
19482.2251546
16644.3721106
19502.6538114
19505.162062
19516.9650283
17162.8315463
17078.7301958
19516.0535385
19506.2506382
17066.9671432
19484.899524
19504.9389378
16858.0130412
16673.8516444
19486.8397267
16664.250426
19503.2896307
19562.4957954
19564.0049319
18364.969574
18363.1759635
19562.9316697
18360.0762304
19563.3042218
19561.3366312
19558.9278511
18346.2631095
18337.022168
19561.1480734
19559.8623276
18351.2424257
19562.3534494
19562.4106765
18359.1370301
18350.1807544
19562.1034034
18358.563723
19562.9400003
19561.3885999
19560.6376244
18339.6272434
18344.6403285
19560.1481952
19561.5517789
18352.2724437
19556.8123073
19556.9739981
18270.3462586
18321.3741292
19555.5093533
19558.2029297
18303.8968737
19555.8965362
19553.9432627
18247.3885587
18266.6490577
19554.3913869
19555.2359604
18288.1294397
19557.8573686
19559.5795435
18326.9829787
18321.5519428
19558.8408135
19558.819002
18318.9945868
19557.0259528
19557.9213545
18299.2555439
18307.9904408
19556.6285022
19558.269795
18312.1075378
19556.1472541
19554.1530725
18223.686626
18262.2094398
19554.8839059
19555.3154318
18259.8449063
19556.8447049
19557.032963
18219.4926212
18249.1505314
19556.0516736
19557.9229297
18256.9397139
19557.248575
19557.8701087
18286.8076574
18303.5023643
19556.6954516
19558.235979
18276.9662311
19557.9123719
19559.5724798
18267.7498991
18297.194987
19558.7514628
19558.9391458
18272.2804474
19559.3135556
19557.9126087
18208.2027978
18236.8848258
19558.793738
19558.7143119
18232.0721736
19558.2043768
19556.6098042
18198.8136225
18161.1267001
19558.6534755
19555.5337816
18212.7111566
19559.4543894
19559.7487241
18257.0941506
18237.7666787
19559.5233981
19559.0950858
18244.5630963
19558.0280476
19551.6303306
18098.8583729
18157.6242278
19554.1401907
19556.4554951
18189.1485741