/*--------------------------------*- C++ -*----------------------------------*\
| =========                 |                                                 |
| \\      /  F ield         | OpenFOAM: The Open Source CFD Toolbox           |
|  \\    /   O peration     | Version:  v1906                                 |
|   \\  /    A nd           | Web:      www.OpenFOAM.com                      |
|    \\/     M anipulation  |                                                 |
\*---------------------------------------------------------------------------*/
FoamFile
{
    version     2.0;
    format      ascii;
    class       surfaceScalarField;
    location    "6.25";
    object      phi;
}
// * * * * * * * * * * * * * * * * * * * * * * * * * * * * * * * * * * * * * //

dimensions      [0 3 -1 0 0 0 0];
oriented        oriented;


internalField   nonuniform List<scalar> 
92311
(
0.203228815801
-0.000386122725975
-0.000492326389396
-0.20278896274
0.000438596331382
-0.000371244367575
0.203527003557
1.48297285099e-05
5.83524718807e-05
0.203275835479
-0.000915367988012
-0.000450520457986
-0.202712190866
0.00041628079615
-0.000846985733336
0.203703745982
-1.06111217577e-05
5.86481389016e-05
0.203485131126
-0.000395195771807
-0.000515622474864
-0.000239945154785
-0.202526047042
0.000265499614905
-0.000421127429682
-0.000568051462444
-0.000450811309171
-0.000376370666498
-0.000391026706019
0.204245314394
8.82714772057e-05
2.42940055154e-05
-0.000501523955223
0.0507271798618
-0.000115677588864
-0.000149833789037
-0.000117608231364
-0.000142354038205
-4.67322973335e-05
-0.0505567859194
6.63967278401e-06
-0.0509185981629
0.0511321292434
-0.000169505046174
-0.000154744915311
-0.000163078616612
-0.000156735887823
4.34488365563e-05
-6.37454502307e-05
0.000117696611751
0.00947509710096
0.000144412459564
0.000140329970262
0.000167717094991
-0.00956227590932
-0.0158882663465
0.00551671799706
0.00988860357071
-0.0115181576863
0.00444652945414
0.0054784561228
0.0058632976321
0.000101860548196
0.000101711769545
0.000134555429482
0.000139712974009
-0.00474776023485
-0.0254540818621
-0.0110388525513
-0.0114952338136
-0.0129338867316
-0.00534031232381
-0.0185374697155
-0.0128531266382
-0.0134762725308
-0.00015856507129
-0.000177279140052
-0.000187512058503
-0.000152382579315
2.4970260466e-05
-5.62494568341e-05
0.000116595404442
0.012348805862
4.74299106221e-05
-5.09128303544e-05
-0.0123441641143
0.0123384692006
-0.000177501505336
0.000196204467264
-0.0123477755931
2.58219111755e-05
-3.5218871009e-05
-8.4398706959e-05
-0.000110725828656
0.0512125446402
-0.000101319589763
-0.000132848470438
-0.000121115717688
9.36882956327e-05
-0.000110230851607
0.0512225810639
-0.000117391254251
-0.000140684670334
-0.00015486135962
-0.0511427918386
-3.20477849596e-05
-0.000174142697847
0.000184581463016
0.0123369449185
2.95647032091e-05
-3.84625447955e-05
-2.4641426007e-05
0.0128458084408
2.80983419631e-05
-0.000117080475413
-0.0128429179375
0.0128490938524
-9.98925176858e-06
-0.000122432043627
-0.0128515222084
-0.000294702336703
0.203224813889
-0.00118824448929
0.00100897902361
-0.202750845708
0.203523763096
-0.000190589747559
0.000491155827746
-0.000296820648275
-4.91201971963e-05
0.20331128356
0.000782630774196
-0.000520591620681
-0.000511523475715
0.203142205665
-0.00120963605554
0.000970943693074
-0.202686577502
0.203668139286
-0.000308999478849
0.000427809980257
-0.000273516788159
-1.4243353852e-05
0.203358699835
0.000726127338794
-0.000451235985982
-0.000187348538684
-0.00025718636428
-0.000247480276119
-0.00103289200776
0.202969736301
0.000822981129033
-0.202395999934
-0.000183310331324
-0.000180703550777
-4.80255330709e-05
-0.000146845236625
1.31285152647e-05
0.204063999918
0.000447523144824
-0.000213184260563
0.0505631561243
-5.92800831074e-05
-4.22236678304e-05
-5.0917131719e-05
-5.37995648384e-05
-0.000235013755689
-0.050510282667
0.000201011392179
0.0512421713169
-5.80529354282e-05
-8.21840301549e-05
-7.37096438016e-05
-4.20560617325e-05
-3.52395580013e-05
8.08021233533e-05
0.00479415582232
0.00392801285617
-0.0142471743544
5.41865645523e-05
5.04825956498e-05
8.11397680273e-06
8.30589376388e-06
-0.00611423509772
-0.0091730067421
-0.00741191524203
-0.00895127567192
-0.016480344587
0.0449821218902
-0.0140651306997
-0.028797773975
-0.00804796575262
0.00847478494621
0.00537249490453
0.0132622203881
0.00990509609044
0.00240048547803
0.0128869692539
0.0443769889984
0.000124707113339
-8.21544343205e-05
-8.95317645906e-05
-7.49798532494e-05
-9.65436137429e-05
0.050666266298
-0.000141864375169
-8.23853863045e-05
-9.55699200642e-05
-7.57341615376e-05
-9.16983316445e-05
0.050614566713
0.000109174446801
-0.0505011808961
-3.94157702305e-05
4.32060540857e-05
0.0124129739413
0.000122988163478
-0.000126952348977
-0.0124127815478
-8.25012138913e-05
0.000100642643404
-0.0124066681349
8.51743519169e-05
-9.40538823978e-05
0.0123974518037
-8.18843861977e-05
0.0126049711051
-3.28440329666e-05
3.05253246986e-05
-0.0126031508653
-5.2199208616e-05
-2.07291690775e-05
1.65615876678e-05
-1.4714538869e-05
1.58987216755e-05
0.0511495125894
9.98018503014e-05
0.0512396804146
-7.6565670931e-05
-2.91321361789e-05
-8.28529408406e-05
-2.96137719348e-05
-4.01751401393e-06
5.11404536709e-06
3.72749437032e-05
-3.80805878716e-06
2.82617782774e-05
0.0511273549997
6.05453808673e-06
-1.60291208188e-05
2.24326517723e-05
-8.28596574527e-05
0.0128400382099
3.25932293962e-05
-2.84779982673e-05
-0.0122089089137
9.78461384814e-06
0.0121851444427
9.83620768714e-06
2.07945786587e-06
-8.56820248285e-05
0.0128399664292
-0.0128211240099
2.16770241119e-06
0.0128083145741
-8.75711201948e-06
2.45341085112e-05
0.00163783312822
0.000169520663539
0.000202366596265
0.000195926968582
-0.00623357644122
0.00713777275178
0.00618799991838
0.00555144819785
9.13599311577e-05
0.00010329342016
0.000166996964076
0.000144255568842
-0.0132914520567
0.00299710670779
0.00868349334872
-0.00257181493681
-0.00881130097571
0.00429515751871
0.00159846931757
0.00268864596185
-0.0094441000257
-0.00183253807732
0.00607195999565
0.000165839495701
0.000196350433191
0.000184167301544
-0.00408414790829
0.00479353088118
-0.00220063842026
-0.0041400754231
0.00216643183009
-1.20549006972e-05
0.0126275183446
-5.22536285253e-06
-0.0126093888456
-0.0126132036326
-0.000175335694972
2.08175203286e-05
0.0126474766895
-2.95933124146e-05
4.35633592577e-05
0.000156140404955
0.0123386482284
-4.52132555633e-05
0.000129181405173
0.0123394454515
-0.0123319787805
5.10854980715e-05
-0.012593588543
-1.9890859489e-05
0.0123286356786
4.6839325124e-05
0.0126589638444
3.27004617422e-06
0.0126846794995
-0.000187652114568
3.27378990459e-05
-4.07188546844e-05
-3.77006155038e-05
-0.0126931278739
0.0127278830044
2.19115433524e-05
3.17916723678e-05
0.000166589244488
-3.79257923785e-05
0.000217968232898
-0.0123404407259
0.0123310397626
1.96535365937e-05
0.0127233269474
-4.57442583457e-05
2.84215026984e-05
1.29850343325e-05
-0.0127746051967
-0.000200384457722
3.990002158e-05
0.0128066224031
-4.10310098195e-05
-4.05414320295e-05
0.0127720738399
2.62670556098e-05
3.09988905439e-05
0.000177999588937
0.0123319347787
-3.81955029536e-05
0.000208381341009
0.0123308943357
1.76987250354e-05
-4.64627647555e-05
0.0123281242644
1.76711926715e-05
0.0128019917971
3.13356721235e-05
-0.000107424157617
-0.0128352635121
0.012839718821
2.97114322152e-05
3.79853107966e-05
-0.0123196368239
0.0123126367488
-3.66114197021e-05
-0.0123066138521
3.23756603127e-05
0.0122969687845
-0.000170808627353
3.57835432852e-05
-3.418330388e-05
3.55132747306e-05
0.000151221252332
-3.97779297976e-05
2.58484898316e-05
3.2860446658e-05
-0.000122483140626
-0.0128658452077
0.0128596149651
1.30767138031e-06
1.07994521631e-05
-0.0123055437819
0.0122959991034
-0.0123049174449
0.0122995038299
-2.83459518078e-06
-2.33204119606e-05
-0.000187696064264
-0.0128153547821
0.000203212009905
-2.92076271834e-06
-0.0123265812739
-1.17503929051e-05
-0.0128286939379
-1.22742303593e-05
-0.0123259869672
0.0037957269011
-0.0110763612755
6.6196207567e-05
8.18810278413e-05
9.28756701516e-05
7.61132803006e-05
0.0161949820495
-0.0201719975164
0.010940467534
-0.00804088140747
0.00856019683867
0.00470539747449
-0.0106020254065
0.0189812565507
0.00265153940758
5.31690049736e-05
3.67207855649e-05
5.40315101545e-05
-0.0103435500165
0.0116001175536
-0.0230730573236
0.00359948415935
6.83509691165e-05
9.39581339603e-05
7.74579711706e-05
0.0132975573258
-0.00931434778514
0.00768207989033
-0.00868609369827
-0.0112223987845
0.00746427924295
-0.00921804976616
0.0035108447579
0.00326882857065
-0.0145976762412
3.27365879216e-05
2.59067529656e-05
-2.38765525336e-05
-1.1983246577e-05
0.00280817328752
-0.00112270957275
-0.00256800975233
0.00661721246056
-0.0036240088989
0.00235746011295
-0.00108989720585
-0.00372919827168
-5.20651503389e-05
-7.22824829894e-05
-5.27681939204e-05
-3.31335125622e-05
-0.011031070902
0.00146125715659
-0.0015353713395
0.00272364082044
0.00842133731474
8.88966339674e-05
-1.66417893553e-05
-3.82154102652e-05
-1.71946777106e-05
-0.0124567549284
-0.00550388777525
0.00262132747062
0.00220505571331
-3.85254183068e-05
-0.0126074650371
-7.03871080759e-05
0.0126188134991
3.82661364482e-05
0.0126137602112
4.85948476201e-05
-5.04897606185e-05
-0.012610909305
6.19945192253e-05
0.000113156290919
0.0124092316419
-0.000118182071444
5.43997838619e-05
0.0123985236159
-0.0123999037272
0.000106795470825
0.0126268370789
-4.0552750253e-05
-0.0126064384991
4.81402831181e-05
0.0123951815573
0.000100084351132
-3.1601307415e-05
0.0126232244022
-8.71971413341e-05
3.22491732135e-05
-0.0126326583474
2.24336745748e-05
-2.42534671689e-05
0.012645609464
7.87128775646e-05
9.57593407837e-05
-0.000103451428922
0.000110207426931
-0.0123931805983
7.69153536722e-05
0.0123852079449
-3.35852267887e-05
2.33509886196e-05
0.0126359828791
8.80404172564e-05
0.0123701827235
-8.61206012453e-05
7.38716961192e-05
-0.0123736219747
0.000105763959811
-7.51819212153e-05
0.0123562572109
6.52576003471e-05
-2.30578297051e-05
0.0126182077389
1.98623741426e-05
0.0126159530957
-8.02757259196e-05
-0.0126120385281
0.000105116716251
-0.0123819774118
0.012371370435
0.0126296347269
-0.0123842536396
-7.61381859189e-05
0.0128367389085
2.78322917585e-05
3.42539263013e-05
0.0122801529682
-2.37425340189e-05
0.0122618362016
3.69922281268e-05
1.74956523916e-05
-2.60508517879e-05
0.0128202926416
-1.37919207585e-05
2.1680814657e-05
2.76134598452e-05
0.0122520509555
-1.30130759941e-05
0.0128183082713
2.21929449079e-05
0.0122353670214
3.61774681576e-05
1.48874074546e-05
0.0128072682964
-1.15961383648e-05
-1.11573613329e-05
-0.0128068388646
-1.48642050857e-05
0.012787026716
2.2716825294e-05
9.11005359932e-06
1.83852809979e-05
-1.05291894718e-06
-3.37384978295e-05
-0.0121938107284
2.55968324672e-05
0.0121735464611
2.05949530547e-05
-1.00119785423e-05
0.0127844781619
3.11014825531e-05
-0.012846348747
-1.59107328888e-05
-4.08430538763e-06
1.6045786859e-05
-8.27068043497e-05
1.47776012897e-05
2.35198748472e-05
0.012256403199
0.0122499896966
1.61780889779e-05
-2.85227182384e-05
0.0122153798326
2.32261009528e-05
-2.6516697641e-05
0.0128186725291
0.0122254959988
0.0121709293222
-2.87442990963e-05
2.30985801923e-05
-5.31952923132e-05
-2.51835404565e-05
0.0121543114713
2.28040470295e-05
-9.71097414963e-06
0.0127795421178
2.24587855584e-05
0.0128057602584
-1.10408375769e-05
-3.2362531386e-05
-0.0121836569944
0.0121636252865
0.0127819173044
1.21302170481e-05
5.83382807332e-05
0.000105247019757
0.000778490134253
0.203448137655
3.73468551406e-05
-0.000390028522552
-6.12183020217e-05
3.99841772928e-05
2.14237873901e-05
4.10087141058e-05
2.0281946181e-05
0.000116101677721
0.0509839332774
-4.17116267398e-05
0.00241308346488
-0.00254771325042
-5.29559338851e-05
-4.7534929101e-05
-5.53717378518e-05
-0.00469283313977
-0.00743144557797
0.0105041948894
0.0120302338384
0.0108387646155
0.0454866666674
0.00122222318795
0.00932505642992
0.059309505632
-0.000129375535937
-0.000104019178341
-0.000104169390546
-0.000127743130213
0.000321018372052
-6.22542327571e-05
0.0507744179196
-0.000109113456339
0.000116364308069
-5.95833046943e-05
0.0123576994598
0.0509410215858
5.31665709696e-05
3.88922449221e-05
3.17900465134e-05
6.16443044728e-05
-2.01857828492e-06
0.0508021206524
4.5223420434e-05
4.97983093502e-05
4.12341869658e-05
5.26348014444e-05
8.92308583408e-05
-3.39327585449e-05
-4.45724932041e-05
0.0121699559077
3.8022100478e-06
1.42408098595e-05
8.40255574234e-05
-6.18817184882e-05
-1.74972611904e-05
0.0121361588463
1.35113662316e-05
0.0121151539486
8.49540816897e-05
-6.64365716148e-05
9.307040695e-06
-0.0121250659386
-1.77188221315e-05
0.0506888541609
-1.95727170969e-06
2.27718033249e-05
1.68995705449e-05
2.35465406218e-06
1.11245028488e-05
0.000127110854621
-6.49565497179e-05
-1.87997784707e-05
-3.22419230578e-05
-4.11130238127e-05
-1.33301680546e-05
5.54024119179e-05
0.000158320308532
0.0506722589591
-9.14982006335e-05
4.4244010216e-05
-3.26755830378e-05
1.96562123471e-05
0.0121127920072
-2.87677670943e-05
-3.50003003353e-05
5.52821322195e-05
4.70125946128e-05
-0.0120950613324
0.0120780507117
-5.03217079171e-05
0.000112654304211
0.000135637866954
0.000133733962307
-0.00887730510581
0.0104192571752
0.00459940137631
-0.0049607250745
-0.00348440488868
-6.20804818937e-05
-9.57072640612e-05
-7.12593187309e-05
0.000140359614752
-0.00234466850757
-0.000527372492703
-6.4476952207e-05
-0.000101796806086
-7.42385950067e-05
-0.0013655323317
-0.000397394820515
0.000927790820003
0.00582801089014
0.00382006772891
0.00380699514122
0.00841807708999
0.000781597242989
0.00349370878326
0.00806963966772
0.00015414744505
-3.31332824356e-05
-2.17598897554e-05
-1.59328376018e-05
-0.00127425244289
4.73767197522e-05
0.000660556322151
4.19220874356e-05
1.40752519629e-05
1.94197489779e-05
-0.00224503540317
0.00229536347537
-0.00209883245616
0.00209238636965
-0.0126480745407
-0.000152887744035
2.9473657281e-06
-8.48506202761e-06
0.0126771195439
-1.07585961824e-05
0.0126361060369
0.000118670410285
0.0123681388033
-6.24536681497e-05
-4.86452340273e-05
0.000152033107498
0.0123447297987
-1.46902443789e-05
-5.24942975584e-05
0.0123529234593
0.012666545687
1.91685663604e-05
-0.012752599432
7.05395693108e-05
-1.43304281472e-05
0.0127172054314
0.0127566463488
-1.59022475145e-05
2.3025249654e-05
-6.78137392833e-05
-5.07549313377e-07
1.64560765059e-05
0.0121688429803
-4.69315452448e-05
0.0121585920966
1.8109804912e-05
2.58651114199e-05
0.012723044459
-1.07759232579e-05
1.35253500449e-05
0.0121596390524
-0.0127488582043
7.08466556719e-05
4.50012315779e-06
0.0127122999708
-9.14524866955e-06
0.0127448567844
2.07935290116e-05
-4.48628624131e-05
0.0121469230533
-1.29973945105e-05
-8.96703015857e-05
0.012138091153
4.79030265607e-06
0.0121468983249
0.0127070817595
1.41742535967e-05
0.012678461333
6.22748706884e-05
3.53044941948e-07
1.64005933484e-05
3.68993390638e-06
-0.0126703036319
0.0126460442275
4.00688439554e-06
-4.85144948926e-05
-0.012138722957
0.0121286024403
3.44932718876e-06
-7.56105588491e-07
-8.08922065419e-05
-7.28718727926e-06
0.0126542514812
2.0609716092e-05
-4.55245369967e-06
8.87962795752e-06
-0.0126337120655
-8.3386919168e-06
-1.5172407908e-05
0.0126237089096
3.15592033942e-05
1.22930039895e-05
0.0126275309593
-3.64325157268e-06
-2.10344000836e-05
0.0121228283549
1.33114734299e-05
3.06176232086e-05
9.52088014029e-07
0.0120963282803
-3.68594443955e-05
2.8682141085e-05
0.012105412777
2.37181331059e-05
0.0126215115018
-5.80685173006e-06
0.0126219945617
-3.48867929769e-05
-1.79348737111e-05
3.57417729928e-05
1.94407582486e-05
-0.0126178380663
0.0126293811232
-7.86035461918e-06
7.22167397341e-05
-0.0120980911047
3.69792181915e-05
0.012077745597
4.09202330231e-05
1.9484580225e-05
-4.53719215001e-05
3.82162441737e-05
0.0126343196913
3.28293057881e-05
-8.11420901394e-06
-0.000655658811132
-0.0495486263734
0.0494646824929
0.0008499297963
-6.6543253616e-06
-2.74072521108e-05
-1.10870239748e-05
-2.53628577515e-05
-4.00719845641e-05
-0.000879634199162
0.0499446220033
6.50384235939e-05
4.91643986495e-05
5.20743447224e-05
5.28070824633e-05
-0.00010066797774
-0.0498988561075
0.000715373607154
-0.00119514903151
-0.0500175318997
0.0501187928142
0.000939039738422
7.94183182987e-05
6.48865170732e-05
6.5698537342e-05
7.76880048788e-05
-0.000132845788369
-0.000686541382311
5.64526885608e-05
6.78444484629e-05
6.91541117398e-05
5.59399827827e-05
-9.27736473744e-05
0.0502501639168
0.000477063476672
-0.0501973019127
6.76256325399e-06
0.00762402095864
-0.0233852278877
0.0220287183113
-0.00915476165849
0.00290119557227
2.35474204224e-06
-1.23421429074e-05
-1.94527775483e-05
1.04746887591e-05
-0.0228941285678
0.0232326823679
-0.00863524603086
0.00171198462873
2.35531274156e-06
-1.81105975061e-05
-3.04329017323e-05
0.00660262118617
-8.89724405435e-05
0.00547338254311
0.0217617884169
-0.00955153699353
-7.55864314025e-05
-7.87326110347e-05
-9.10555508454e-05
-0.018037117808
0.000687223542856
-9.42403604051e-05
0.00542239432186
-0.0252315826184
0.029156281379
0.00112061646497
-0.0100552454585
-9.53229400341e-05
-0.000109897814491
-0.000113114731862
-8.28978188105e-05
-0.00742479844882
-8.2527602575e-05
-6.50955304585e-05
-5.71060392144e-05
0.027337243238
0.0122958738456
-0.00788041957569
-0.0240402268561
0.0987737068198
-0.000982434946312
-0.00385479614824
-0.00282426233748
-0.00371629427208
-0.00222397187768
0.00823808718788
-0.0458623312908
-0.0149907532248
-0.0132161123457
-0.010287727006
-0.013306684778
-0.0107940225047
0.0123120185055
0.000928944418602
0.0828944373535
0.00676262810952
0.00419279592797
0.00547512785577
0.0111779482151
0.0122243792155
-0.0359399505562
-0.00921065440253
-0.00542911036751
-0.00587642377926
0.00219073546798
0.00234691920516
0.0190010522239
0.0925218378061
0.0159369797385
0.0165990596513
0.0164846436214
-0.0436500439724
-0.00728751254718
0.0159353737839
0.00729319218157
0.00602012364971
0.00747360634278
0.00600413751217
0.0549889370902
-0.0254537350928
0.000200091087873
-5.48329388144e-05
-4.17361565163e-05
-5.15180919905e-05
-4.57069755293e-05
0.0491823672708
0.000168737112462
5.71125186427e-05
-0.049414605296
0.0492534314826
0.000468459748778
-6.29419837072e-05
-5.4374288094e-05
-5.89381675864e-05
-6.6534105224e-05
0.000181751740243
-0.0494607294705
-7.34783440159e-05
6.40358033377e-05
-0.0122191080949
-4.41919878541e-07
0.0121998007294
2.95685137428e-05
0.0122299549515
8.1423654361e-05
-8.40798679598e-05
8.16381168272e-05
-6.67850874811e-05
-0.0122428085882
-9.4220642234e-06
-2.90107078472e-05
-3.16125353672e-05
-3.56654384835e-06
-0.000320744119664
0.0123156418338
0.0122749179184
0.0122009412254
0.0122193234045
-1.88089261153e-05
8.74998571924e-05
-3.93262893202e-05
5.4311567457e-05
-7.57398197557e-05
0.0122041142611
0.000644362969201
-5.04007617703e-05
-3.73863898919e-05
-5.20895949387e-05
-3.00707200402e-05
5.41192113687e-05
-0.0496085613935
0.0497070668137
-2.83692090158e-05
1.09575486631e-05
-6.1474204076e-06
-9.53580697189e-06
-4.5464401725e-06
-0.0497282103196
0.000703074249981
0.0122405207404
-1.90146805785e-05
5.38963216627e-05
-0.0122605865662
6.73257399746e-05
0.0122805467767
6.13906734159e-05
-1.93751171668e-05
-3.54088013277e-05
-0.0123018781336
1.444929816e-05
0.00107097868077
1.7117452802e-05
1.53808117095e-05
9.44930000938e-06
2.1708316288e-05
0.0493533809335
-0.000227565827374
-0.000188788974467
-0.000221888014706
-0.000179205307914
-6.75713563392e-05
-4.09911051553e-05
-5.5240440396e-05
-4.21005997896e-05
0.049686969583
9.96927008599e-06
2.86861620718e-05
4.23078038661e-06
3.30020537789e-05
-8.57415371918e-05
0.0497861466167
0.00101786934184
2.68449129956e-05
4.43703215141e-05
2.79064484065e-05
4.04174566073e-05
-0.000185662032377
4.19991988419e-05
0.0122137061208
7.84707034934e-05
0.0121784854788
-1.09512351573e-05
1.5160739438e-05
-0.0121856363427
0.000129875218871
-0.000126926637585
2.90686140245e-05
9.65867226457e-05
-4.31304720335e-05
-5.44966676656e-05
0.012252032084
0.0122265400211
7.88734062795e-05
8.32397519647e-05
-5.49458115244e-05
-0.000104513141764
-0.0122292314431
0.0499175768315
4.2311057813e-05
5.28509464085e-05
3.33927664091e-05
6.14054704111e-05
-0.00126787196228
-0.000248650408724
0.00137507165614
5.03052194699e-05
8.19753679423e-05
6.82193799214e-05
6.6364849727e-05
0.0503892611516
-0.000425139449585
-0.00168839916029
9.16620656366e-06
0.0121802782499
0.000149608269233
-0.000150108833088
-1.17260095563e-05
-3.2190067313e-05
-0.012229064882
0.000186633245195
0.012282890345
-0.000196444984505
9.22214768554e-05
9.18100969422e-05
-6.55714552684e-05
-0.00011943403029
0.0122274948138
0.000139129554441
8.72407084024e-05
-8.38179858527e-05
-0.000161856328616
-0.0122510227554
0.0122702747036
0.000824723862734
7.32909449223e-05
6.52567582502e-05
6.10596636686e-05
7.84657479478e-05
-0.000157838466527
0.0501281702499
7.62068629516e-05
8.14601759155e-05
8.19512101572e-05
7.4991380555e-05
-0.000146505001268
-0.0500903983616
0.000618845224274
-7.98544076921e-05
0.0122683535424
4.06765741454e-05
-0.0122896010421
0.012243450139
9.27463117716e-05
-9.2325206109e-05
-0.0122482535269
8.33665485084e-05
0.012277973169
9.49440495269e-05
-0.000116423584206
-0.000108230043241
-0.0122785571858
0.000130280172437
0.00103076709045
7.87419218604e-05
7.24651252897e-05
6.48255830235e-05
8.46876627997e-05
0.0503618780329
-0.000199487342653
0.0502056778136
8.31792534302e-05
8.21724969471e-05
8.24504207538e-05
8.1431503044e-05
-0.000154230875259
8.20807084587e-05
8.03848849215e-05
7.83234566182e-05
8.50190744954e-05
0.0503445409862
0.000742500557835
-0.00017641122195
-9.63059815293e-05
0.0122443779741
9.33799092164e-05
8.11380207503e-05
-9.39087616302e-05
-0.0122629416268
0.00013267484971
0.0122821485963
0.000136599063337
9.68947321494e-05
-0.000119693697287
-0.000116540249464
0.0122807372703
0.000162479288728
7.73121535452e-05
-0.000105221608802
-0.000148122969716
-0.0122963154241
0.0123098335502
-0.000104189658718
0.0122864075089
0.000155578201397
-0.0122840878613
-9.68545370779e-05
-0.0123042433061
0.0123185000566
7.09361665607e-05
0.00017418271258
-0.00173617622095
6.98072060953e-05
0.000104305878063
9.14598861197e-05
0.0265269925048
-0.00353657204585
-0.0301045055355
0.00851268257549
0.0259127987579
-0.00694047544205
0.000112068338092
0.000102282998434
0.000106663153463
-0.0294811241145
0.00837054816961
0.00724805741699
8.90905008291e-05
2.51665627942e-05
4.79894882746e-05
0.00222643145563
0.0238582874466
0.016911996392
-0.00270835069506
-0.0076713044534
0.000666045904532
-0.0111032959777
-0.00131552272954
0.0226778440955
-0.00606706879939
-0.00120575099356
0.018332680091
-0.00501096624855
-0.012577790705
0.0242522764187
-0.00402092973542
-0.00546822482237
0.0152675213852
-0.000474833916306
-0.00298697602679
-0.00234716162834
-0.000252915042484
0.00944682599748
-0.00181328886939
-0.00239964291837
0.0174723055162
-0.0028242430803
-0.00420759709713
-0.00207384685537
0.010983486639
-0.00249667384941
-0.00809749381317
5.50256212863e-05
-3.90856998961e-06
1.18336793261e-05
0.00411788831124
-0.026429702916
0.019090068721
-2.85939923657e-05
-2.79660346193e-05
-1.19906712243e-05
-0.0207457855464
-0.000757701810465
-0.00555583366043
-0.00901270233818
0.000649148346572
8.97554596468e-06
-1.82947652291e-05
-2.09146036488e-05
0.00750127555413
0.020958488656
-0.00532717436442
-2.12115845504e-05
-8.01177491784e-05
-2.57322325542e-05
-0.00563172565239
0.023401861748
-0.00556924292603
-4.0296898806e-05
-8.42023731466e-05
-4.52386456649e-05
0.0183330168903
-0.00411286532127
-0.0121543338617
-0.00358461795109
0.0240525144715
0.0190602730019
-0.00325382524636
-0.0140774994176
0.0245351184033
-0.00247542433022
-0.00814233505915
0.00211329637372
2.30900445083e-05
-4.54085952351e-06
-5.81853062953e-08
0.0233474032679
0.00587754361962
0.026356701751
-0.00590576977884
-3.44350440738e-05
-9.68487189288e-05
-3.80610818032e-05
-0.00543055222858
-0.00461173795141
-3.68028621694e-05
-7.77321877157e-05
-2.5979384105e-05
0.0284851140571
0.0193441225868
-0.00181216590888
-0.000631597206913
0.0141696307929
0.019303824124
-0.000301667775335
0.00117810521537
0.0143937123589
0.00100607306274
-0.00963345472445
-8.80174360617e-05
-0.000112571623803
-0.000118379227045
-0.00973098496866
0.0256757270766
-0.000100181814422
-0.00010108620932
-0.000102193737411
-0.0214010087435
0.00686020004277
0.0192628029244
-0.0143763685917
-0.00177089429005
-0.00125616891805
0.0250199057478
0.0258822063595
-0.0199173286234
-0.000472047404681
0.00182495963857
-0.00911643654391
-7.57426405209e-05
-9.62470871862e-05
-9.66222246587e-05
0.0321861330108
0.0299807054747
-0.0102155812083
-0.000101012556308
-9.1913926672e-05
-0.000104234885703
-0.00902203473199
-8.92110428855e-05
-7.73173062034e-05
-9.35199930414e-05
0.0331013660965
0.00806404383907
0.0217444657841
0.000222763255892
0.000931465198645
0.0189014272186
0.0236882284095
-0.000325572065928
0.0222821817222
-0.000680964784244
0.0124028377407
-8.64544588707e-05
5.20596039592e-06
3.76997610158e-05
-0.0124141093322
6.68426593435e-06
-0.0123960321003
0.0123758921596
3.6012807707e-05
-3.8644092513e-06
6.69419089429e-05
2.6996766806e-05
-0.0122397880743
8.48420501984e-05
-0.0122185097163
3.51184891647e-05
0.0122031896558
5.70673578113e-05
0.0123865962719
2.19000673503e-05
-0.0122391879136
4.09188762537e-05
-0.012410203378
0.0124139874053
8.70938110923e-05
-0.0001014432936
-0.0124246221269
-0.000106672340513
-0.0124290256085
0.0124186827699
0.000144386234317
9.52307659099e-05
-0.0122280087117
0.0122135003275
0.000101946226261
-4.4271098685e-05
5.99822986881e-05
-0.0122588353357
0.0124013624745
0.000129583642637
-0.012435721808
-0.012245169442
-0.0123879296021
0.000136670268957
-2.79113500204e-05
-8.38963146038e-05
0.0123536416937
-0.00012024385339
0.0124032248154
0.000161151034761
7.32741234313e-05
0.0122003094318
-4.53237408872e-05
2.06327321271e-05
-8.85800273719e-05
0.000106120967877
0.0121907508705
-6.47710810835e-05
0.00017871799181
0.0123782507366
-5.46485632814e-05
0.0121869050712
-0.000164783759999
0.0124703820396
-5.90199184857e-05
0.000180700627624
-0.0124776892723
-0.0124535632843
0.000176427928244
0.012438092229
8.41471669961e-05
4.9117851609e-05
-0.012278861359
3.03888752249e-05
-0.0122679788677
5.1506711024e-05
0.0122493270568
-0.0124569693391
0.000189604730208
0.0124572425543
3.18685200312e-05
-0.0122977487713
0.0124879456369
0.000192505919239
-3.21884996887e-05
-0.0124961533596
-0.000204073689354
-0.0125064285601
0.0124993402881
0.00020253304537
9.82195164348e-06
-0.0122875786389
0.012265126447
7.52524162135e-06
-1.92846045359e-05
-0.0123287948266
1.05919503979e-05
0.0124769763623
-0.0125083350778
0.000192181430003
-0.0123192590125
-0.000211973694662
-0.0124434564688
-1.5220982225e-05
0.0124325865649
0.00023139522241
0.0124210702433
0.000192656348642
2.72764699556e-05
9.84522340726e-05
0.0121974525719
2.81299994255e-05
0.012224746322
6.24131727696e-05
0.0124040513818
0.000209219471792
0.0122076812963
8.03343811168e-05
-0.000236908755673
0.0124297813368
-2.42554779012e-06
0.000259222616459
-0.012396320252
0.000266088220712
0.0123896304056
-0.000228776527059
1.87379956495e-05
0.000115018614051
-0.000113274673986
-2.15394651385e-06
-0.0121970183945
0.00011945314153
0.0121912809018
-0.000201044042622
0.000286167249798
0.0124292640699
0.000102469083175
-0.0124693508929
0.000249274743253
-3.33832981908e-06
0.0124647296716
-0.000230850011636
0.0124911137238
0.000224388457772
1.00388745258e-05
0.0122417552546
-4.16642143253e-05
-6.64498040757e-05
0.0122377613458
4.2219976644e-05
0.012488868574
0.000242781360715
0.0122269725995
0.01246019694
0.000272401606214
1.81723754004e-05
-0.000294919070187
-0.0124874207703
0.0124889986898
0.000282796733924
-1.92913863505e-05
-0.0122157188348
0.0122099039901
-5.03353057775e-05
-8.67338670303e-05
6.13446288708e-05
0.012460127715
0.000263969733887
-0.000329924974991
-0.0124328039576
2.76449809619e-05
0.0124388712796
0.000344947109421
-4.87081317158e-05
0.0123905660136
0.000296167600958
-2.64180042197e-05
-0.000261479246901
-1.17444939575e-05
0.000167218368155
0.0121927904439
-0.000165695021511
-7.60472739075e-06
0.0121943322075
0.000136242078569
0.0124024462832
-5.03811922478e-05
-0.000303145099742
0.00031508566052
-2.99841393798e-05
0.0122028263979
0.000155972428898
-0.000358239812703
2.42141180414e-05
0.0124880114215
0.000372471256447
-8.75788832143e-05
-0.0124634750972
0.000385065999251
0.0125319394303
-0.00037096557551
-0.000114814612122
-1.05596906561e-05
0.0001817140163
-0.000184326932209
-0.0122360414679
-4.15426305834e-05
0.000183404084602
0.0122758834389
-0.000337227464649
-9.2586126795e-05
0.000172608427323
0.000400961101031
0.0125407372136
-0.000110319253457
-0.01246626452
0.000346355121081
2.93015031991e-05
0.0124779369776
-0.000321854174671
0.0124928350348
0.0003053484371
-2.05576589832e-05
0.0122129567394
-7.27503881611e-05
-0.000139084627684
0.0122315831136
0.000110853781269
0.0125038157714
0.000324029200875
0.0122213693709
0.00036371935036
2.68807045969e-05
0.0125101494415
-0.0125268867562
-0.000382299790123
0.000350733125726
0.0125565896629
-0.0122446017497
-4.39814186444e-05
0.012273832971
-7.12653144132e-05
-0.000150347814649
0.000124577521766
0.000337561882172
0.012551214092
-0.00021862898441
-0.0125326569922
0.000100732325336
0.0125292543585
0.000186337799047
0.0125141493805
0.000199527433424
-0.012520128726
-7.86500088587e-05
5.52469819741e-05
0.0122582808167
-8.3551915405e-05
0.0122804249013
-0.0122956556629
6.0617492563e-05
0.0125116089463
-0.0125352894392
0.000171221374035
0.0122745577304
7.09256409942e-05
-0.000239302324558
0.0125268535844
0.000111268739411
0.000203646748265
-0.012510923136
0.000254998842193
0.0125116782819
-8.63503932473e-05
6.95682640943e-05
-0.000116123391238
-0.0122593338713
8.93499291725e-05
0.012256819935
0.000216712928973
0.0125274453473
7.76514639814e-05
0.0125419778246
0.000170610328884
0.000112732940781
-0.01254548669
-0.000181833847426
-0.0125510419926
0.0125489898512
0.000148916153977
-0.000118271144655
-0.012269893618
0.012269104535
-0.000110948293634
-9.97565484937e-05
-0.0122894730366
0.000120578466716
0.0125404705936
-0.0125564807599