/*--------------------------------*- C++ -*----------------------------------*\
| =========                 |                                                 |
| \\      /  F ield         | OpenFOAM: The Open Source CFD Toolbox           |
|  \\    /   O peration     | Version:  v1906                                 |
|   \\  /    A nd           | Web:      www.OpenFOAM.com                      |
|    \\/     M anipulation  |                                                 |
\*---------------------------------------------------------------------------*/
FoamFile
{
    version     2.0;
    format      ascii;
    class       volScalarField;
    location    "10.5";
    object      p_rgh;
}
// * * * * * * * * * * * * * * * * * * * * * * * * * * * * * * * * * * * * * //

dimensions      [1 -1 -2 0 0 0 0];


internalField   nonuniform List<scalar> 
28582
(
19548.7385859
19547.4891027
19549.1073901
19547.5902958
19549.981292
19547.7740103
19552.3580559
19548.7592494
1168.70996362
1260.01449228
-0.121622410139
19550.6751887
17414.8395527
17250.8963338
19547.1048437
19546.4894831
17176.0979646
19520.1277777
19517.5708251
19548.2469269
19546.5620344
19546.3511568
19548.5712089
19546.6004518
19546.3016248
19549.8226195
19546.1551197
19551.453981
19546.3333933
1285.65777293
-0.136906017858
-0.0798451545734
19550.983303
19552.398959
17448.0667074
17415.7093622
19531.4056183
19546.1492615
19545.615262
19545.7418011
19520.0084868
16994.0531643
19517.5556862
19515.8892651
1209.19110061
1287.5649522
12.1217500441
11.1276733579
1239.27965954
11.9945781423
19531.9464981
19532.4995893
17386.0273142
17418.0488532
19532.6484133
17379.7040325
19531.9456203
19531.499086
19527.931479
17323.7315241
17242.3965679
19529.2387474
17314.5958787
19530.4127006
19523.9768831
19525.2117863
17112.3861343
17163.3717613
19526.5291797
17091.2238769
19523.0288949
19521.0532374
17071.9294998
17013.9826068
19521.7196882
17084.7468146
17047.6004988
19521.413551
19514.1683807
16959.5504472
16906.6997277
19518.8361441
16956.2618557
19515.572418
16991.9738185
1123.46997457
1.14225640633
1110.2439315
1120.16327715
0.741040949903
0.978124204456
1302.22538184
11.1772427763
9.05648443158
1328.91982765
10.6553580313
1316.2801544
8.62469741966
19533.9166808
19534.813125
17437.7417766
17460.8451562
19532.8501477
19535.9675648
17451.7953057
19532.0513165
19529.3040662
17427.0789544
17437.2309435
19531.1179581
19530.1566949
17444.1478006
17454.6437482
17448.7406111
19530.7290663
19531.4795307
17443.6431407
19530.3900908
17449.0144614
19521.2793232
17058.1218319
16994.986667
19520.7045023
17046.9961392
19522.0235645
16985.9079209
19522.0712597
19524.2773425
17024.1704535
16957.3532948
19523.0462702
19523.6430817
16968.7388582
19514.7173117
19513.6108331
16955.1615922
16892.7401546
16889.4829711
19518.6662324
16957.143907
16898.3153059
16914.2091125
19517.3362447
19519.9695254
16960.2582178
19521.1372564
16959.3702909
19545.4556832
19545.8925192
1344.81008295
-0.0860962255858
19551.4308659
17429.6921573
19546.111998
19546.0685554
16958.1668594
16908.7578872
16845.8008449
19545.5848892
19544.7409641
16812.1603439
16712.3813616
1153.92744142
1363.17928041
1393.71484943
8.23178461773
9.68788418776
9.55360244761
1419.09803133
1435.34552206
19527.8326993
19530.2953637
17427.8149197
17401.5791182
19529.6131532
17406.0557634
19529.2250473
19526.2177927
19525.0269257
16921.5475332
16937.5331974
19525.2590469
19524.9793972
16919.0683547
19523.3029383
19518.6322848
16942.9651752
16896.8753888
19522.278638
16917.0557407
19519.5432046
19523.1357916
19518.8943963
16846.3767892
16873.7509052
19522.3337596
16884.0840057
19519.5379151
19519.7954216
19517.8815665
16810.7415226
16775.4870831
19521.1631636
16784.1005826
19516.3556914
19518.3081483
19512.9458072
16739.0462856
16741.311738
19516.4517245
16761.9916152
19514.7279159
19562.8571056
19552.361446
19540.0381924
19540.4934057
883.181513473
975.025618286
890.169037245
961.488872583
964.14920456
0.0482555586944
0.711595085188
0.185866582789
-0.0595339512718
0.099106046379
-0.0292232918968
19576.1178366
19574.6912764
18530.6759015
18484.0935685
19568.5328327
18318.694142
19570.5498386
19564.7914905
18385.2539635
18018.0825604
19552.7292417
19556.7532102
19547.2350122
18215.1432168
17474.5732444
17843.4351392
17294.1190983
19540.0203754
19536.2288822
17219.5576367
16789.3704264
17157.9486057
16938.1259631
19544.7470696
19543.3609129
17786.1326969
17309.2713636
17289.7575351
19538.0304256
19540.3577641
19539.2891549
17183.7552465
16995.0501516
17230.0189761
17166.1617877
17240.9512297
17208.6173994
785.917916898
806.585849986
880.963529338
6.14558545528
9.12456093802
7.02738576286
9.97473830619
17.9807551614
30.6051627273
15.9226007357
26.6175362612
823.256469257
828.985678586
939.539731688
885.969505951
936.170665138
8.00702661439
11.0998226126
9.2474052829
11.8003437525
1006.04140923
966.703997595
1010.76990065
12.7038545747
20.1571720264
12.4221844777
16.6215357575
932.459792715
935.604269973
9.88031977861
11.1959418512
11.4444487536
1019.59955712
961.870674471
1022.23753601
10.8435740329
12.0907584714
10.5778425649
10.6896891363
19583.0773598
19579.7705972
18611.1701592
18551.6360815
19580.5936621
18631.0617892
19582.6312134
19582.9777165
19577.0080393
18529.1151252
18588.5181655
19579.9721937
19581.4015596
18617.1944004
19562.3547652
19569.5243755
18380.3982039
18097.4622843
19572.8573374
19558.1710564
18176.146188
19573.1207595
19572.1264388
18510.8686432
18272.7719184
19577.3681538
19566.7622178
18416.8209744
19567.2763394
19554.7603986
18145.9738025
18172.1640635
19560.8309115
19561.6699605
18296.5175804
19546.0551917
19563.7760969
17997.2094655
18085.821247
19551.5669879
19558.1427109
17859.7250002
19532.4807818
19522.0355876
17749.0413417
17364.2604544
19537.3603304
19516.4216914
17618.2310176
19539.6109479
19545.9205505
17974.2788385
17665.3370314
19551.034139
19534.6938665
17771.8206277
19527.1667603
19511.4931249
17335.5670287
17486.0147602
19513.8243144
19523.1554751
17556.3360602
19494.7542631
19508.3214621
16979.3394124
17158.7271061
19497.0909149
19502.7441861
16951.3661292
19491.085152
19493.4767609
16880.3526052
16813.4298178
19491.9990822
16874.4426367
19493.3650768
19496.5612825
19502.6077168
17157.8784619
17021.2087073
19503.179697
19497.9330055
16992.7403532
19493.0036715
19498.0178181
16869.1254326
16989.691292
19496.0189997
16928.9563663
19494.986768
19528.1092283
19541.0039916
17626.2888031
17730.9371914
19531.3144219
19537.9652055
17583.0268786
19518.6340847
19511.4136993
17472.4837011
17300.9246325
19521.4410054
19509.6004909
17442.8446823
19518.7592227
19510.8004646
17299.7504579
17406.8161183
19510.845539
19517.6929896
17424.7351602
19501.8060617
19504.1512186
17071.4464813
17205.44748
19500.6090468
19504.0618503
17110.1488404
19502.4891883
19502.1491403
17039.3553563
17058.988703
19500.0153796
17086.3299784
19504.9375525
19504.5176972
19506.7419561
17224.2844335
17173.728913
19505.8341052
19507.1336392
17153.5695024
19506.1527103
19512.1676216
17118.4635984
17161.3617627
19508.9467083
17133.2971217
19509.0607216
19510.3499953
19508.6372041
17195.0379296
17245.8017879
19509.6303879
19509.2093812
17215.883335
19515.0494687
17196.1138993
19511.5894788
19547.0036125
19545.8565079
19545.2714817
19546.6014922
19547.1568672
19556.6641092
19547.3505853
19546.1482618
19545.5525196
19546.1878679
19546.2112691
19555.8180626
19535.515702
19539.921655
19537.3842565
19542.386292
19546.603479
19549.7380875
19555.0377062
19536.1546411
19536.8006038
19540.3310722
19542.4385046
19543.6009075
19544.2347094
19543.9757622
19542.7661498
19553.6575793
19542.7039409
19542.1187347
19542.4832492
19543.2168754
19543.9088214
19544.1463994
19544.2659646
19556.3595952
19546.0377276
19544.8077126
19544.3122436
19544.5463105
19544.9378464
19544.8546686
19544.7856053
19556.90467
19545.3436588
19545.5872648
19546.0192172
19556.8727816
19533.1921257
19537.7394572
19540.1270646
19543.4264488
19547.1566264
19552.2166843
19593.536104
19469.9210557
19536.338005
19540.1090674
19544.8573688
19545.3554085
19544.538559
19542.5730552
19537.6247884
19532.7602642
19541.9846047
19542.6177597
19543.6414181
19543.8677699
19543.3413692
19542.4200564
19540.9996967
19551.0823711
19546.0842341
19545.1714472
19544.9096488
19545.0939125
19544.8396306
19543.7911267
19542.167083
19553.5017607
19545.3006951
19544.9120354
19544.4550175
19555.4205137
19530.6944899
19537.1292374
19541.5565225
19543.6633964
19545.1021603
19544.8720291
19551.4882844
19470.7476601
19534.089721
19540.6033209
19540.4550997
19541.5572448
19540.9326648
19536.6608412
19524.6387107
19511.8351283
19542.7729487
19543.0030409
19543.1431439
19542.4034527
19541.2924562
19538.6081398
19531.9279867
19545.4615921
19547.9411738
19546.9751235
19545.7183649
19544.950685
19544.2430124
19543.3588502
19540.9388589
19536.3150225
19548.7525453
19548.1813674
19546.5538088
19545.4059676
19544.4533799
19543.0349415
19540.2714995
19552.243036
19544.4144598
19542.32509
19553.052159
19532.1428318
19539.9871851
19544.6009916
19547.4409624
19546.7571004
19546.8485616
19546.2025028
19517.3804061
19532.0432992
19536.6419118
19540.7387728
19543.3593161
19543.3877131
19541.887724
19540.4349821
19536.2946193
19523.1476799
19538.755409
19541.9848838
19542.4020611
19543.1230302
19544.1042355
19542.705526
19540.5750915
19539.2860203
19536.8194736
19536.8359477
19547.3266552
19547.8647955
19546.5009451
19545.8009794
19544.7489097
19543.6168336
19541.834603
19539.2251327
19540.9797324
19550.120779
19547.690028
19546.3656457
19545.4938596
19543.7743764
19542.1282085
19543.4087231
19545.0263836
19543.8609717
19544.9313432
1253.87703766
1209.78203671
1195.48734541
1220.68979874
1292.80431076
1385.66106699
1451.36658619
1466.83890253
1102.40322273
1230.74928277
1268.01984305
1256.60337032
1256.87655601
1292.29051415
1351.30807825
1438.96277239
1491.60655304
1483.42776958
1102.01102481
1218.25352339
1222.47854761
1226.73339709
1255.86336248
1305.05574142
1360.30802955
1459.74808653
1488.65769833
1513.48256538
1155.48875388
1160.78061229
1177.76313244
1219.39680403
1256.95577301
1315.84059701
1404.29677144
1450.94151319
1490.74772456
1145.82663368
1195.83629558
1227.11752046
1317.34296421
1372.36148941
1414.28692777
1448.8710869
1391.78569542
1418.70541395
1423.69452832
0.347414326545
-0.102416349828
-0.0678952831202
-0.0939999843726
-0.07883004596
0.246211194398
-0.104355820817
-0.0956979306035
-0.26530845492
1.56397366979
1.45221043094
0.908344858078
0.00281879052721
-0.212539400408
-0.171600851416
1.03212194324
0.313264720816
-0.14378414615
-0.256129270154
0.814569175182
0.850708527428
0.00929766058165
-0.0997341897025
-0.0832619379304
-0.145295632043
-0.106559784879
1.89371609919
-0.138363247544
-0.310390444041
0.903408538802
0.0276937764551
-0.142846829084
-0.113730468327
-0.180273043008
-0.0963644522178
0.484482117815
-0.127338265859
-0.291812315364
1.01274790566
-0.122872656259
0.0707132015167
0.847429584567
-0.123945009072
-0.134019284061
-0.280467664679
1.16247856203
-0.116324299624
-0.285329940427
1.53944401594
19537.9160323
19535.4577141
19537.9764001
19534.7282248
19537.3944401
19534.9440827
19537.4241004
19541.1222316
19540.2198096
19541.7602551
19539.4557099
19536.6746204
19539.1420433
19538.9006912
19538.5074564
19539.2118494
19539.6994627
19536.4927103
19538.5661051
19538.7109512
19539.7848664
19541.6731154
19540.760699
19542.042905
19540.3764538
19540.9662782
19541.3511796
19542.7273483
19535.9152743
19534.0646764
19536.585974
19531.4047509
19534.8465302
19532.905317
19536.0117768
19538.4372702
19537.9781567
19539.7791591
19536.9976815
19537.7889118
19537.8145037
19537.9392223
19538.4905979
19538.274224
19539.7226099
19535.2889301
19538.2219144
19537.6436335
19539.1204595
19540.9641742
19541.2817855
19545.3051135
19539.9966696
19537.2510322
19540.3110933
19543.9435438
19534.6889061
19532.286192
19535.9722
19530.024863
19535.2939271
19532.2439043
19536.4151133
19538.2434926
19538.3118272
19539.2568952
19538.4209158
19540.232704
19539.185172
19542.0800662
19537.9376444
19537.7800939
19539.272008
19535.1638012
19538.2341351
19538.320833
19539.8347514
19537.6630672
19540.5229766
19543.2696559
19540.6019883
19541.0156484
19541.2779462
19543.8672746
19526.2265971
19530.8657682
16920.1496859
16906.2794099
19537.0572203
19534.7106433
19537.9838514
16948.2079186
17081.5509302
16927.1222752
17024.9405981
19542.3560647
19540.440309
19542.3434227
17113.9526509
17166.8355606
17055.2430234
17095.5558798
19546.3974763
19543.9020491
19545.0069907
17198.5058968
17262.3416177
17114.3210125
17137.2329427
19547.3899403
19545.4409749
19544.7933847
17275.8960787
17180.9270996
17117.2326418
16933.7441835
19546.4318795
19544.0290049
19543.7319877
17104.1391433
16871.9284153
16855.0446135
16712.8778846
19547.2778486
19543.8325539
19543.9057452
16851.8463949
16834.5557175
16715.94472
16703.3917967
19536.2152083
19542.6699976
19534.2126502
16816.7527558
16643.4076903
16682.3719026
16471.5257966
19496.7890856
19517.6925414
19519.4727551
16686.8885082
16017.8365176
16546.4804108
16473.5069802
19536.2955847
19537.2312916
16804.5613325
16915.647701
16945.6777102
17082.309644
19534.4018082
19537.887531
19538.4903076
16918.8859326
16934.593513
17089.7183506
17088.4221324
19538.868991
19539.1779844
19540.2929789
16941.8219781
17001.6593061
17072.4335816
17039.8617243
19542.3666511
19541.7062072
19543.2529942
17027.2409564
17072.9667396
17041.5961678
17076.1447171
19543.631682
19544.2061251
19544.0405342
17085.7042795
17078.5642215
17077.2330275
16966.4259858
19542.8447325
19543.1364724
19541.8808881
17042.8632284
16872.6788718
16911.9566635
16757.4737097
19541.2077468
19540.6182958
19539.7619964
16813.0317132
16724.5969908
16723.8827597
16667.8224924
19539.1894497
19539.0802657
19537.8954472
16697.8441696
16646.7221478
16649.7923081
16594.9364146
19531.1675471
19536.0045693
19533.0949061
16628.4280138
16433.8153444
16587.8973904
16413.4901866
19540.4566334
19530.2264434
19549.6689371
16516.3682919
16507.998886
16500.0089146
16518.5461263
19540.8312949
19541.0052145
19543.2438927
16999.1932777
17122.2598695
17178.354086
17292.2621599
19542.5179332
19545.0458063
19545.8114911
17135.1361211
17138.7500656
17313.2408878
17319.593821
19542.5392583
19545.6260931
19544.9484596
17119.5696043
17081.7109381
17301.0024316
17179.4210346
19543.7732004
19544.6660979
19544.6863391
17077.9034373
17100.490506
17153.3619492
17149.2457794
19543.7052723
19544.7594985
19544.2698002
17085.6386088
16972.3585003
17130.7309549
17034.8342884
19541.6393947
19543.5132279
19542.7661247
16926.2793092
16756.7093582
17001.8738618
16906.120839
19539.9496055
19542.125878
19541.3302137
16728.1245741
16692.2004047
16881.5687042
16832.9686758
19538.1307846
19540.4874505
19539.2205858
16657.3253876
16560.6049682
16789.1978287
16599.2374559
19536.2137905
19537.9026979
19537.7966685
16553.3222963
16444.3692265
16583.8496675
16505.5355322
19552.9289623
19539.1576169
19553.7668156
16521.6055805
16537.6577098
16568.5746583
16522.9242276
17222.7685946
17322.2854744
19548.081958
19549.993303
17346.6463668
17348.6368003
17436.3166986
19547.0756134
19549.9017053
19549.3052726
17329.7596082
17236.2230974
17424.4469766
17379.6094234
19546.1095392
19548.6120546
19547.733526
17209.2082109
17177.3192902
17361.4519912
17280.9610429
19545.3131146
19546.9245873
19546.2100011
17154.2916846
17069.1810458
17233.0780922
17122.872731
19544.1769171
19545.7280475
19545.4396906
17036.6541956
16946.0323397
17117.7124262
17078.9556602
19542.8944566
19545.049472
19544.351775
16926.968835
16867.5679599
17063.5612855
16911.7410868
19540.4580578
19543.0706546
19541.7806784
16809.6017998
16624.0403905
16847.2303619
16741.258201
19539.4006709
19540.782888
19540.8936736
16611.3420311
16542.2032924
16728.4557936
16625.0018847
19554.219452
19542.3321851
19554.3789487
16599.1222416
16513.6044719
16678.4989684
16509.2030259
19548.9056678
19550.0119432
17398.1355012
17279.3347811
17261.4032729
19546.8267285
19548.4918009
19547.3246473
17232.6515723
17159.7569794
17195.7453407
17144.7764972
19546.2414287
19546.830774
19546.5122431
17154.8627897
17092.4333254
17150.2735366
17033.3981936
19544.6376541
19545.8714685
19545.2288204
17033.2320346
16919.0658558
16970.8892083
16901.131819
19542.9014306
19544.5704232
19543.9100612
16893.9505757
16771.7693804
16888.4896593
16835.0048135
19542.18681
19543.2396399
19543.2212664
16754.2476278
16641.2613329
16822.7612742
16693.6801983
19554.6704937
19544.1901831
19554.737334
16697.007482
16497.7549965
16750.0425334
16531.9243458
19545.585656
16875.7462548
19544.4210573
16860.0121022
16809.788298
19543.9379755
16805.4708229
16688.3845861
19554.899357
16746.3942997
16554.7107099
21.8284074498
6.71229079704
25.8527942896
7.87214322874
1244.85716934
1274.37744104
1.59800873532
1.38710691654
1.93439428767
1.75018866227
1229.08345481
1275.09265614
1249.94677849
1.83585396433
1.76197613063
2.44964022075
2.14209505314
1201.50420734
1230.99360894
1223.50756991
1.54812521439
1.01305275241
1.73852797564
1.02972909985
1206.35581568
1224.92062666
1238.576211
1.09823371594
1.9049478004
1.16132057666
3.80248588025
1253.23205689
1258.3647487
1291.05632682
5.04980586138
13.0938852062
9.332801787
16.8482473013
1338.46693807
1329.25100194
1369.3203183
16.7641016772
18.0420008825
18.582490304
18.4875917847
1423.10417456
1410.60117632
1439.00221717
14.4307674862
9.98515726013
13.4262526557
9.27724615646
1489.51279461
1470.75742023
1510.27846547
9.2869860643
10.7964065545
9.38365560743
11.8166413665
1497.91135954
1463.17484017
1552.35464036
19.1452841454
53.6804309844
17.9010520927
27.1674014025
1167.98088003
1106.41423206
1175.16874693
35.1877131254
19.7722436763
32.6208704581
18.1713975427
1270.81375861
1232.74619602
1252.38740457
12.2351197297
10.5496433
6.12624165852
4.15555632709
1261.12878859
1250.54568826
1251.61721277
6.9806765921
3.80478377867
3.35547086788
2.34681253111
1251.79472989
1257.01834059
1258.36069403
1.05991686873
0.843103182812
1.48059028447
1.33497190507
1272.48243667
1267.25085015
1287.03617451
1.22679053124
4.96245276544
2.97064507191
6.72894141712
1316.91542422
1307.90175471
1327.27913453
14.2504171139
25.1422696919
15.8899669901
27.2230542734
1390.9991372
1364.4353152
1414.94926131
25.01626254
22.1391199375
28.7501878612
21.9566752185
1471.39863424
1456.67803797
1486.91519668
10.8675362056
8.49667260485
10.1029626088
8.60929991517
1524.67549745
1497.5256423
1523.326755
9.18982874748
12.495567157
10.3178039413
13.0030211168
1573.84223026
1500.13674876
1575.47921726
16.2225960058
20.2533401706
16.301962424
20.8584633169
1174.14223656
1087.61358501
1150.35423911
22.8178303627
7.87881046637
19.3023231209
6.78300055901
1222.31163991
1183.37915849
1187.16038961
0.806967980262
0.698609895518
0.655056152032
0.539281225111
1220.50558489
1189.40913486
1196.26182573
1.06660302541
1.17254810926
0.83859434385
1.30553343869
1236.60405469
1204.85916123
1218.07423739
1.8272927906
2.01483215589
2.12801042034
2.44684571144
1279.254948
1237.39011768
1260.96792573
3.60208185678
6.64794323082
3.23687297769
4.90549958269
1336.97357845
1281.71094014
1305.14080094
9.46494864627
13.4563277239
7.62953237024
11.0130442238
1407.68053296
1331.18728223
1390.98744507
36.8551660048
30.1492000535
31.7063798899
26.9543508982
1480.63513163
1438.13234811
1461.41707301
11.3644796156
9.89261144032
10.572746064
9.17120840218
1512.48360661
1470.82791969
1494.23531647
10.9094608757
12.4936064576
9.91330169525
10.8956950459
1572.40539132
1511.48070411
1554.31677755
17.3012157632
22.9858576
16.8348720093
25.5637420136
1160.22105928
1132.56864659
0.723085381103
0.565825430223
0.524317829538
1164.01149113
1126.72402236
1133.15896897
0.974500856579
1.37494708106
0.787206688083
1.09257352165
1198.16231621
1151.12237847
1181.69036257
2.08194773909
2.24928244166
1.72888954766
2.30149999357
1240.14397675
1206.08171978
1226.65045467
3.01661468353
4.40771398551
4.1684366591
6.93701890649
1282.83773181
1241.07205651
1266.10327002
6.73318729771
10.8409959993
8.08951743154
9.55145592382
1358.99558481
1296.93809184
1344.82194649
20.4575481361
19.986052096
15.4742237762
14.0615929004
1436.151533
1382.62070968
1410.98943767
9.35168973186
8.21343999515
7.9363217784
6.80724801084
1475.73659251
1428.46656919
1459.57546443
8.46328554433
9.14965105452
6.72807273469
7.62070913432
1533.08705729
1467.31958019
1514.63710851
15.3593142732
27.9614354801
13.7480424709
32.0525153849
1182.05063859
1191.85400633
1.82441730872
3.53185142236
2.6449400206
5.57762683759
1205.55324841
1207.72299978
1214.16124275
9.05259784046
15.4858410973
13.274275469
21.3152906076
1271.27518505
1229.87415397
1285.58174905
21.0553928752
14.9810534894
25.8610710636
13.1526904649
1349.44551428
1330.65689695
1356.83160736
6.90413288478
6.47355079077
6.74953504548
6.43565481676
1397.07228872
1374.92944273
1394.27134698
6.67818602133
6.65862510932
6.5746020512
6.60118752191
1450.768638
1408.79220863
1446.17371705
6.45629024469
7.2406971699
6.06375780772
6.66779262467
1502.54259582
1436.39438107
1492.39654045
12.6070912381
34.2341364493
11.5869941073
36.9978441261
1369.99780807
8.26864447818
1409.14214876
8.16829090665
8.3507461368
9.9872589897
10.3200369805
1445.64121751
7.27037556753
7.35669231421
9.25385692544
8.94905779425
1469.53415617
12.0810011612
42.1429979349
12.7133218654
41.3064353827
19513.7655987
19514.3071415
16908.7495073
16892.7135587
19513.5221591
16882.321478
19514.3119653
19513.450632
19515.1682867
16891.3583452
16899.5903216
19513.4189438
19514.6422904
16871.51963
19515.0943413
19514.5446214
16991.0220164
16918.2991454
19513.3432997
16968.464154
19515.8621628
19516.6878746
19519.1354667
17039.0934528
17064.7959533
19518.2641179
17025.0452381
19517.5645894
19514.7349077
19515.2841865
16921.5423589
16961.9574899
19513.5411995
19515.8872164
16964.1874499
19516.2905416
19518.5758549
17053.9556547
16997.7729953
19518.0717484
19517.2223093
17014.7732359
19521.1350298
19520.3097102
17129.6957567
17095.3123256
19520.214869
17115.9300804
19521.2020984
19521.7222149
19521.8814834
17145.8397119
17146.1476033
19522.0163514
17134.4980538
19521.6017232
19520.3236041
19519.5505264
17081.560096
17072.873969
19519.6440859
19520.1386576
17096.3583277
19520.5369776
19519.9901497
17126.3257558
17086.5719374
19520.4539556
19520.3294537
17113.9894401
19523.831866
19522.8987143
17224.7460997
17167.4539967
19522.738173
17193.4128459
19524.2031321
19525.0196013
19526.8900093
17242.0511736
17239.0144685
19526.1766328
17214.4891156
19525.5473551
19521.7636618
19519.846258
17144.2880704
17131.6131061
19520.8317529
19520.2667423
17164.7963242
19522.5830328
19518.9747606
17193.659825
17137.0678374
19522.8114063
19520.0880316
17181.0946465
19527.8379142
19528.3978633
17275.3284683
17237.8008245
19527.2573243
17230.6765341
19530.0209037
19528.2926003
19529.5484888
17236.6858841
17112.9214934
19526.7244709
17183.5761818
19531.0017213
19523.855905
19518.568753
17178.6788668
17082.7539401
19523.2822664
19518.6023911
17153.6268738
19524.3503587
19517.3197744
17018.4118671
17016.5833058
19522.5053469
19518.9391972
17090.5935917
19521.2668051
19526.9542548
17018.8448535
17030.6109028
19524.1922054
16946.8719177
19523.5861027
19518.5031929
19519.3150453
16942.0870884
16819.5784678
19516.9355649
16879.4998958
19520.8624813
19517.433437
19515.2740379
16942.7009955
16784.6093948
19520.0715933
19512.8532111
16869.4352194
19515.0237907
19511.1030636
16772.681885
16748.7925835
19514.4247967
19511.3250772
16819.0628263
19513.7086868
19517.5149062
16836.6961608
16806.6505149
19515.7824677
16800.5395852
19515.5434887
19510.58904
19507.8700984
16838.2555455
16799.6485818
19506.854087
16803.991249
19512.3079966
19512.0216283
19510.3780223
16770.9957139
16716.2560083
19513.6959044
19508.4656454
16775.3407761
19508.7837191
19501.2534068
16765.4208335
16712.3267285
19505.0548788
19505.3058365
16776.2718748
19501.5074124
19505.7554141
16805.0675134
16779.6133036
19503.4499819
16763.2093445
19505.0874772
19498.2654831
19499.7804944
16732.0007178
16575.1078245
19494.9750624
16677.8094273
19502.7959074
19499.104678
19497.1613845
16740.8240163
16681.2588857
19501.3375823
19494.8745904
16723.2599338
19494.6429437
19487.3994216
16509.0064241
16593.9354927
19490.9760068
19490.3854926
16625.9036348
19469.4147698
19489.4410046
16578.567181
16616.882068
19485.924809
16531.5492691
19469.1042531
19424.8198734
19420.7102258
16013.6527277
16357.618572
16033.5898233
19447.1341939
19407.5448363
19469.5095431
19482.0749944
16580.9669345
16508.8287479
19483.7058873
19471.2434893
16518.9700332
19431.2603202
19474.2896928
16424.9848746
16007.0991529
19440.2429029
15957.8670396
19461.6399728
19503.3701776
19496.9906572
16868.5293973
16831.6091907
19501.1156161
16904.0001545
19498.098532
19507.304493
19508.2497127
16905.0287129
16978.172673
19504.8086693
19511.2667941
16952.8956796
19504.7463311
19502.5746356
16884.5412316
16992.7625923
19508.2920778
16945.7874755
19499.2540638
19509.3985364
19517.504724
17024.0791939
17050.9239893
19513.6533242
19513.5815478
16995.8181813
19515.3996052
19510.409923
16933.425122
16989.1036132
19512.6017501
19513.7389305
17002.0550921
19515.985501
19513.8313759
16932.7763004
16991.5489995
19513.8900977
19515.9329854
16994.9093743
19517.0484321
19519.1809296
17038.6901047
17103.5340412
19515.8279911
19520.2848143
17043.6296424
19517.3208898
19519.5830856
17025.1558926
17098.9237987
19516.710131
19520.5104638
17035.3868213
19514.4943396
19513.2378407
16958.9930725
16987.9215097
19513.1387269
19515.290555
16985.4687355
19513.8472636
19513.4263908
16981.7558677
16993.6537248
19513.5528528
19512.9622103
16989.4435238
19513.364587
19517.5759683
17016.2966073
17053.9176532
19515.148781
19515.3113618
17007.8031528
19511.9414669
19511.8603844
17004.4434585
17047.593449
19510.3456118
19513.5875121
17007.6170603
19510.6237343
19512.9833123
17048.1807972
17003.3594007
19512.5130839
19511.8439838
17015.381744
19509.6181477
19511.3352082
17064.5177207
17054.5175717
19512.0354616
19509.201141
17037.2617291
19507.6787434
19510.3137377
17007.7224097
17043.9466554
19508.6734101
19509.2824933
17020.0825271
19507.5903098
19509.4701752
17060.8577622
17055.5699514
19507.729082
19509.4430766
17044.4393196
19507.0949065
19511.1060478
17107.2276546
17066.8204833
19510.3977373
19508.8120661
17084.677262
19504.8170922
19507.7994708
17096.8797232
17039.3470919
19509.1819591
19502.4810875
17071.0394224
19506.1589948
19508.8311819
17067.6622779
17062.4872486
19507.4569752
19507.0178407
17064.9128178
19504.6061186
19503.5145273
16997.283875
17021.444161
19503.4270625
19504.9931075
17037.7848009
19500.7103432
19507.2283027
17001.9873385
16991.2050546
19507.3171656
19501.2865987
16930.6146874
19501.0719617
19507.1603196
16943.9550027
16796.9146194
19508.2223389
19500.3247275
16864.9077193
19502.7760189
19502.6972312
16947.3251465
16859.1465227
19502.8098616
19502.1465865
16896.1613475
19502.2839437
19502.3418291
16780.3463651
16809.9178035
19502.2694189
19502.0799279
16840.8260766
19499.8252478
19505.7558733
16754.3917018
16756.3105841
19504.1909286
19500.0990159
16716.8653617
19498.5399377
19501.396476
16740.9697199
16683.919612
19502.8164092
19496.7842942
16699.7978758
19502.3209709
19502.0647707
16747.6695425
16702.9102544
19502.4291578
19501.929714
16713.7903475
19501.7074678
19499.7817711
16667.7050714
16682.8986867
19500.1236526
19501.1420882
16685.2585111
19491.4912637
19499.3925317
16674.1768501
16659.1395454
19496.9152562
19494.4069246
16634.0835291
19487.7507878
19489.8249854
16660.5993541
16616.7910125
19493.6123391
19485.0237268
16617.5964407
19494.3992769
19497.4859915
16647.5122089
16628.0529324
19497.5549941
19494.4506479
16616.1871036
19491.0966903
19488.760609
16580.8656869
16605.2015144
19488.127204
19490.9815993
16590.0910995
19480.9673412
19487.0325875
16628.3290573
16610.6580107
19484.5503872
19483.1904301
16609.5835066
19475.653941
19475.0250607
16548.9961532
16417.9041841
19478.8990514
19472.3023266
16527.9382415
19482.3096026
19486.974674
16571.4387823
16566.6885389
19485.4423134
19484.0996717
16562.1776054
19477.03767
19477.1639706
16419.8400029
16496.5098391
19475.1142572
19478.7196767
16498.9875842
19461.2584945
19470.7436722
16503.7594672
16506.1304844
19461.7979596
19468.9360042
16502.9758484
19439.965491
19476.0654064
16035.8882274
16509.4233008
19437.9920941
16064.9252021
19479.5542682
19468.5547333
19475.5411617
16506.27902
16501.2009754
19473.8359684
19469.8014977
16506.5846961
19452.0169139
19489.89239
16523.4292716
16101.9456556
19452.4579748
16103.5136688
19489.037503
19514.8209113
19506.4589337
17036.3378863
17064.0725632
19511.8468674
17094.4843275
19509.352943
19519.3758019
19520.6184349
17091.3811446
17184.4758903
19516.9684546
19523.3932065
17143.4248654
19518.5822833
19516.8663814
17124.901941
17203.3380583
19521.3819831
17148.8669311
19513.4937247
19523.2901865
19528.6170956
17233.9989028
17240.6348268
19526.2251469
19525.3413198
17191.7463076
19525.5996786
19522.1723889
17155.2448714
17197.98773
19522.8893987
19525.0389967
17219.0551708
19524.9231735
19521.5670337
17151.5919521
17211.460057
19522.6469643
19523.7649166
17217.9323861
19527.850451
19530.1539202
17246.9819108
17321.1004673
19527.6825055
19530.0690769
17264.5294517
19526.9423565
19527.9050695
17259.1332199
17323.3005883
19525.6150978
19528.9018469
17264.6960088
19519.8625183
19519.5028955
17101.6945437
17196.0235488
19516.8764275
19522.0175618
17171.6687871
19518.4494468
19515.0714193
17094.9088377
17127.0113608
19515.5067229
19517.7010887
17153.7045154
19522.4343544
19527.0861985
17244.5674829
17270.2379418
19524.2263057
19525.3510829
17219.9573483
19521.1093859
19521.8274468
17147.3153127
17228.7327751
19519.9349917
19523.3941002
17182.5450303
19517.7697496
19514.963026
17077.8734234
17125.1789334
19514.8294317
19517.8210676
17114.8112218
19517.5755575
19514.819252
17086.5538044
17111.3451257
19514.9507218
19516.8920355
17116.8561368
19520.2681612
19521.5324169
17133.8397237
17139.2656853
19519.849894
19521.7184401
17118.6051989
19520.6629026
19521.8540983
17130.361698
17147.9160138
19520.6999579
19521.928432
17123.2849498