/*--------------------------------*- C++ -*----------------------------------*\
| =========                 |                                                 |
| \\      /  F ield         | OpenFOAM: The Open Source CFD Toolbox           |
|  \\    /   O peration     | Version:  v1906                                 |
|   \\  /    A nd           | Web:      www.OpenFOAM.com                      |
|    \\/     M anipulation  |                                                 |
\*---------------------------------------------------------------------------*/
FoamFile
{
    version     2.0;
    format      ascii;
    class       volVectorField;
    location    "5.1";
    object      force.turbine;
}
// * * * * * * * * * * * * * * * * * * * * * * * * * * * * * * * * * * * * * //

dimensions      [1 -2 -2 0 0 0 0];


internalField   nonuniform List<vector> 
28582
(
(0 0 0)
(0 0 0)
(0 0 0)
(0 0 0)
(0 0 0)
(0 0 0)
(0 0 0)
(0 0 0)
(0 0 0)
(0 0 0)
(0 0 0)
(0 0 0)
(0 0 0)
(0 0 0)
(0 0 0)
(0 0 0)
(0 0 0)
(0 0 0)
(0 0 0)
(0 0 0)
(0 0 0)
(0 0 0)
(0 0 0)
(0 0 0)
(0 0 0)
(0 0 0)
(0 0 0)
(0 0 0)
(0 0 0)
(0 0 0)
(0 0 0)
(0 0 0)
(0 0 0)
(0 0 0)
(0 0 0)
(0 0 0)
(0 0 0)
(0 0 0)
(0 0 0)
(0 0 0)
(0 0 0)
(0 0 0)
(0 0 0)
(0 0 0)
(0 0 0)
(0 0 0)
(0 0 0)
(0 0 0)
(0 0 0)
(0 0 0)
(0 0 0)
(0 0 0)
(0 0 0)
(0 0 0)
(0 0 0)
(0 0 0)
(0 0 0)
(0 0 0)
(0 0 0)
(0 0 0)
(0 0 0)
(0 0 0)
(0 0 0)
(0 0 0)
(0 0 0)
(0 0 0)
(0 0 0)
(0 0 0)
(0 0 0)
(0 0 0)
(0 0 0)
(0 0 0)
(0 0 0)
(0 0 0)
(0 0 0)
(0 0 0)
(0 0 0)
(0 0 0)
(0 0 0)
(0 0 0)
(0 0 0)
(0 0 0)
(0 0 0)
(0 0 0)
(0 0 0)
(0 0 0)
(0 0 0)
(0 0 0)
(0 0 0)
(0 0 0)
(0 0 0)
(0 0 0)
(0 0 0)
(0 0 0)
(0 0 0)
(0 0 0)
(0 0 0)
(0 0 0)
(0 0 0)
(0 0 0)
(0 0 0)
(0 0 0)
(0 0 0)
(0 0 0)
(0 0 0)
(0 0 0)
(0 0 0)
(0 0 0)
(0 0 0)
(0 0 0)
(0 0 0)
(0 0 0)
(0 0 0)
(0 0 0)
(0 0 0)
(0 0 0)
(0 0 0)
(0 0 0)
(0 0 0)
(0 0 0)
(0 0 0)
(0 0 0)
(0 0 0)
(0 0 0)
(0 0 0)
(0 0 0)
(0 0 0)
(0 0 0)
(0 0 0)
(0 0 0)
(0 0 0)
(0 0 0)
(0 0 0)
(0 0 0)
(0 0 0)
(0 0 0)
(0 0 0)
(0 0 0)
(0 0 0)
(0 0 0)
(0 0 0)
(0 0 0)
(0 0 0)
(0 0 0)
(0 0 0)
(0 0 0)
(0 0 0)
(0 0 0)
(0 0 0)
(0 0 0)
(0 0 0)
(0 0 0)
(0 0 0)
(0 0 0)
(0 0 0)
(0 0 0)
(0 0 0)
(0 0 0)
(0 0 0)
(0 0 0)
(0 0 0)
(0 0 0)
(0 0 0)
(0 0 0)
(0 0 0)
(0 0 0)
(0 0 0)
(0 0 0)
(0 0 0)
(0 0 0)
(0 0 0)
(0 0 0)
(0 0 0)
(0 0 0)
(0 0 0)
(0 0 0)
(0 0 0)
(0 0 0)
(0 0 0)
(0 0 0)
(0 0 0)
(0 0 0)
(0 0 0)
(0 0 0)
(0 0 0)
(0 0 0)
(0 0 0)
(0 0 0)
(0 0 0)
(0 0 0)
(0 0 0)
(0 0 0)
(0 0 0)
(0 0 0)
(0 0 0)
(0 0 0)
(0 0 0)
(0 0 0)
(0 0 0)
(0 0 0)
(0 0 0)
(0 0 0)
(0 0 0)
(0 0 0)
(0 0 0)
(0 0 0)
(0 0 0)
(0 0 0)
(0 0 0)
(0 0 0)
(0 0 0)
(0 0 0)
(0 0 0)
(0 0 0)
(0 0 0)
(0 0 0)
(0 0 0)
(-0.00201752764151 2.79157664437e-05 0)
(0 0 0)
(0 0 0)
(0 0 0)
(0 0 0)
(-2.68374121116e-05 7.56656685315e-08 0)
(0 0 0)
(-2.74803355805e-06 -1.07389330036e-09 0)
(0 0 0)
(0 0 0)
(0 0 0)
(0 0 0)
(0 0 0)
(0 0 0)
(0 0 0)
(0 0 0)
(0 0 0)
(0 0 0)
(0 0 0)
(0 0 0)
(-0.0163290389811 0.000457266510661 0)
(0 0 0)
(0 0 0)
(0 0 0)
(-0.030474968493 0.000561348841499 0)
(0 0 0)
(0 0 0)
(-0.0289611285161 0.000793244003197 0)
(-0.129795189068 0.00355508437163 0)
(-0.0826231259967 0.001521917769 0)
(-1.55478120131 -0.153569446439 0.0425073031913)
(-0.00614158994518 3.73303245684e-05 0)
(-0.0814374164643 0.00150007700246 0)
(0 0 0)
(0 0 0)
(0 0 0)
(0 0 0)
(0 0 0)
(-0.0163289853794 0.000457265009638 0)
(0 0 0)
(0 0 0)
(0 0 0)
(-0.0299380624156 0.00055145903293 0)
(0 0 0)
(0 0 0)
(0 0 0)
(0 0 0)
(0 0 0)
(0 0 0)
(0 0 0)
(0 0 0)
(-1.57692677757e-05 6.61170684983e-08 0)
(0 0 0)
(-1.00610837068e-05 4.21839092385e-08 0)
(-0.000153487158956 1.41615707863e-06 0)
(-0.000788864512134 7.2784985437e-06 0)
(-9.92516623713e-05 9.15750510914e-07 0)
(-0.000477983429804 4.41013842583e-06 0)
(0 0 0)
(0 0 0)
(-0.000211102314926 1.10757834767e-06 0)
(0 0 0)
(0 0 0)
(0 0 0)
(0 0 0)
(0 0 0)
(0 0 0)
(-0.00905678791561 0.000125315346853 0)
(-0.000440156297119 4.74698673874e-06 0)
(-0.00206582920028 2.85840968326e-05 0)
(-3.56169927067e-05 2.75983669879e-07 0)
(-0.000169404097313 1.56301551994e-06 0)
(-4.78095099568e-06 -1.86832916526e-09 0)
(-3.72381485803e-05 2.8854544204e-07 0)
(0 0 0)
(0 0 0)
(0 0 0)
(0 0 0)
(0 0 0)
(-0.000229275433647 1.20292620215e-06 0)
(0 0 0)
(0 0 0)
(0 0 0)
(0 0 0)
(0 0 0)
(0 0 0)
(0 0 0)
(0 0 0)
(0 0 0)
(0 0 0)
(0 0 0)
(0 0 0)
(0 0 0)
(0 0 0)
(0 0 0)
(0 0 0)
(0 0 0)
(0 0 0)
(0 0 0)
(0 0 0)
(-0.00535144443778 3.55271625543e-05 0)
(0 0 0)
(0 0 0)
(0 0 0)
(0 0 0)
(0 0 0)
(-0.00493228943874 2.99798533046e-05 0)
(0 0 0)
(0 0 0)
(0 0 0)
(0 0 0)
(0 0 0)
(0 0 0)
(0 0 0)
(0 0 0)
(0 0 0)
(0 0 0)
(0 0 0)
(0 0 0)
(0 0 0)
(0 0 0)
(0 0 0)
(0 0 0)
(0 0 0)
(0 0 0)
(0 0 0)
(0 0 0)
(0 0 0)
(0 0 0)
(-0.0369735752175 0.000813520276208 0)
(-0.00905408118881 0.000122182202415 0)
(-0.0147801555982 0.000199453917561 0)
(-0.0105292324696 0.00016283668766 0)
(-0.0197889657644 0.00043541163655 0)
(0 0 0)
(0 0 0)
(0 0 0)
(0 0 0)
(0 0 0)
(0 0 0)
(0 0 0)
(0 0 0)
(0 0 0)
(0 0 0)
(-0.00545154603734 3.31360420982e-05 0)
(0 0 0)
(-0.00819930213567 0.00012680384869 0)
(0 0 0)
(0 0 0)
(-0.188327198099 -0.00840439102352 0.00286126360536)
(-0.24333842569 -0.0278517070618 0.00761459999959)
(-0.327843238328 -0.0229387146292 0.00673413121341)
(-0.0439237613036 0.000809075570587 0)
(-1.04337471054 -0.173996444643 0.0453624143979)
(-0.0537921403271 0.00118357493424 0)
(-0.105342468239 0.00194040799485 0)
(-0.544906191746 -0.0514177368013 0.0145578563154)
(-4.61788354613 -0.803119153623 0.208471004836)
(-0.876555052429 -0.0911553096539 0.0250195095484)
(-0.484267084533 -0.00484215705981 0.00319149608863)
(-2.72307360646 -0.486296680748 0.125848891776)
(-0.249691220952 -0.000358929805431 0.00114598374639)
(-0.987525555434 -0.0906267387878 0.0258238422876)
(-0.0627811628283 0.00137640509909 0)
(-0.00929070818248 0.000143682661658 0)
(-0.0206623718042 0.000380600835652 0)
(-0.0205791538364 0.000379067960899 0)
(-0.0254087183681 0.000559061639653 0)
(-0.0254087395281 0.000559062105232 0)
(-0.0495743273985 0.000913158983567 0)
(-0.132910014476 0.0029138998611 0)
(-0.103509374049 0.00226932448886 0)
(-0.198974204068 0.00366777257194 0)
(-0.0435566175373 0.000802312783353 0)
(-0.053791508009 0.00118356102151 0)
(-0.104996089674 0.00193402770257 0)
(-0.248309251567 0.00544389598108 0)
(0 0 0)
(0 0 0)
(0 0 0)
(0 0 0)
(0 0 0)
(0 0 0)
(0 0 0)
(0 0 0)
(0 0 0)
(0 0 0)
(0 0 0)
(0 0 0)
(0 0 0)
(0 0 0)
(0 0 0)
(0 0 0)
(0 0 0)
(0 0 0)
(0 0 0)
(0 0 0)
(0 0 0)
(0 0 0)
(0 0 0)
(-0.00539877651938 3.28152940101e-05 0)
(0 0 0)
(-0.00819891165592 0.000126797809842 0)
(0 0 0)
(0 0 0)
(0 0 0)
(-0.0369694924605 0.000813430444333 0)
(-0.0145722961795 0.000196648914928 0)
(-0.00882725221105 0.000119121211079 0)
(-0.0197884936384 0.00043540124848 0)
(0 0 0)
(-0.010527618667 0.000162811729879 0)
(0 0 0)
(0 0 0)
(0 0 0)
(0 0 0)
(0 0 0)
(0 0 0)
(0 0 0)
(0 0 0)
(0 0 0)
(0 0 0)
(0 0 0)
(0 0 0)
(0 0 0)
(0 0 0)
(0 0 0)
(0 0 0)
(0 0 0)
(0 0 0)
(0 0 0)
(0 0 0)
(0 0 0)
(0 0 0)
(0 0 0)
(0 0 0)
(0 0 0)
(0 0 0)
(0 0 0)
(0 0 0)
(0 0 0)
(0 0 0)
(0 0 0)
(0 0 0)
(0 0 0)
(0 0 0)
(0 0 0)
(0 0 0)
(-0.0150675724817 0.000290692573912 0)
(0 0 0)
(0 0 0)
(0 0 0)
(0 0 0)
(0 0 0)
(0 0 0)
(0 0 0)
(-0.00336195927575 6.48609188006e-05 0)
(0 0 0)
(0 0 0)
(0 0 0)
(0 0 0)
(0 0 0)
(0 0 0)
(0 0 0)
(0 0 0)
(0 0 0)
(0 0 0)
(0 0 0)
(0 0 0)
(0 0 0)
(0 0 0)
(0 0 0)
(0 0 0)
(0 0 0)
(0 0 0)
(0 0 0)
(0 0 0)
(0 0 0)
(0 0 0)
(0 0 0)
(0 0 0)
(0 0 0)
(0 0 0)
(0 0 0)
(-0.322468545531 0.00873274807894 0)
(-0.00773609031209 0.000149249257475 0)
(0 0 0)
(0 0 0)
(0 0 0)
(0 0 0)
(0 0 0)
(0 0 0)
(-0.0708016972758 0.00193344757894 0)
(0 0 0)
(0 0 0)
(0 0 0)
(0 0 0)
(0 0 0)
(0 0 0)
(0 0 0)
(0 0 0)
(0 0 0)
(0 0 0)
(0 0 0)
(0 0 0)
(0 0 0)
(0 0 0)
(0 0 0)
(0 0 0)
(0 0 0)
(0 0 0)
(0 0 0)
(0 0 0)
(0 0 0)
(0 0 0)
(0 0 0)
(0 0 0)
(0 0 0)
(0 0 0)
(0 0 0)
(-1.52109486525 0.0532098675383 0)
(-0.0432744475008 0.00156288620175 0)
(0 0 0)
(0 0 0)
(0 0 0)
(0 0 0)
(0 0 0)
(0 0 0)
(-0.333663843016 0.0115432460997 0)
(-0.00657357469679 0.000255323948688 0)
(0 0 0)
(0 0 0)
(0 0 0)
(0 0 0)
(0 0 0)
(0 0 0)
(0 0 0)
(0 0 0)
(0 0 0)
(0 0 0)
(0 0 0)
(0 0 0)
(0 0 0)
(0 0 0)
(0 0 0)
(0 0 0)
(0 0 0)
(0 0 0)
(0 0 0)
(0 0 0)
(0 0 0)
(0 0 0)
(0 0 0)
(0 0 0)
(0 0 0)
(0 0 0)
(0 0 0)
(0 0 0)
(0 0 0)
(0 0 0)
(0 0 0)
(0 0 0)
(0 0 0)
(-2.60730442575 0.0714139505678 0)
(-0.0787295374315 0.00215639847761 0)
(0 0 0)
(0 0 0)
(0 0 0)
(0 0 0)
(0 0 0)
(0 0 0)
(-2.60702001629 0.0714061606055 0)
(-0.581703666232 0.0159328371689 0)
(-0.0163290362456 0.000457266434059 0)
(0 0 0)
(0 0 0)
(0 0 0)
(0 0 0)
(0 0 0)
(0 0 0)
(-0.0477487918337 0.00130783725368 0)
(-0.0787243302955 0.00215625585439 0)
(-0.0163289269344 0.000457263372988 0)
(0 0 0)
(0 0 0)
(0 0 0)
(0 0 0)
(0 0 0)
(0 0 0)
(0 0 0)
(0 0 0)
(0 0 0)
(0 0 0)
(0 0 0)
(0 0 0)
(0 0 0)
(0 0 0)
(0 0 0)
(0 0 0)
(0 0 0)
(0 0 0)
(0 0 0)
(0 0 0)
(0 0 0)
(0 0 0)
(0 0 0)
(0 0 0)
(0 0 0)
(0 0 0)
(-0.0356952532159 0.000494984559011 0)
(-0.00102512875732 1.41843186557e-05 0)
(0 0 0)
(0 0 0)
(0 0 0)
(0 0 0)
(0 0 0)
(0 0 0)
(-0.0245105906313 0.000339887318387 0)
(-0.038954223487 0.000540176561228 0)
(-0.00850314570102 0.000117654809055 0)
(-0.000203353442807 1.06692278697e-06 0)
(0 0 0)
(0 0 0)
(0 0 0)
(0 0 0)
(0 0 0)
(0 0 0)
(-0.000713566817628 7.69565775308e-06 0)
(-0.00119707053102 1.65634119072e-05 0)
(-0.000219251680869 1.15033515623e-06 0)
(0 0 0)
(0 0 0)
(0 0 0)
(0 0 0)
(0 0 0)
(0 0 0)
(0 0 0)
(0 0 0)
(0 0 0)
(0 0 0)
(0 0 0)
(0 0 0)
(0 0 0)
(0 0 0)
(0 0 0)
(0 0 0)
(0 0 0)
(0 0 0)
(0 0 0)
(0 0 0)
(0 0 0)
(0 0 0)
(0 0 0)
(0 0 0)
(0 0 0)
(0 0 0)
(-0.000203479333153 9.11704043089e-07 0)
(-0.000201372995992 9.02266445298e-07 0)
(-2.60383629806e-05 7.34128214077e-08 0)
(0 0 0)
(0 0 0)
(0 0 0)
(0 0 0)
(0 0 0)
(0 0 0)
(0 0 0)
(-2.62565012797e-05 7.40278427133e-08 0)
(-2.61017889974e-05 7.35916453549e-08 0)
(-2.6849857286e-06 -1.04925508535e-09 0)
(0 0 0)
(0 0 0)
(0 0 0)
(0 0 0)
(0 0 0)
(0 0 0)
(0 0 0)
(0 0 0)
(0 0 0)
(0 0 0)
(0 0 0)
(0 0 0)
(0 0 0)
(0 0 0)
(0 0 0)
(0 0 0)
(0 0 0)
(0 0 0)
(0 0 0)
(0 0 0)
(0 0 0)
(0 0 0)
(0 0 0)
(0 0 0)
(0 0 0)
(0 0 0)
(0 0 0)
(0 0 0)
(0 0 0)
(0 0 0)
(0 0 0)
(0 0 0)
(0 0 0)
(0 0 0)
(0 0 0)
(0 0 0)
(-0.00336202173667 6.48621238337e-05 0)
(-0.00913876660548 0.000176310523156 0)
(-0.00203913114998 3.93401314812e-05 0)
(-0.0868521780576 0.00202492148097 0)
(-0.0178009919727 0.000343427329189 0)
(-0.0526766033194 0.00122813253497 0)
(-0.0107965260652 0.000208293005063 0)
(0 0 0)
(0 0 0)
(0 0 0)
(-0.00240904252104 4.64766817585e-05 0)
(0 0 0)
(0 0 0)
(0 0 0)
(0 0 0)
(0 0 0)
(0 0 0)
(-0.017799885368 0.000343405979911 0)
(-0.00397168435591 7.66240978493e-05 0)
(-0.00397167665113 7.66239492041e-05 0)
(0 0 0)
(0 0 0)
(0 0 0)
(0 0 0)
(0 0 0)
(0 0 0)
(0 0 0)
(0 0 0)
(-0.070803618662 0.00193350004802 0)
(-0.195587024415 0.00529667849902 0)
(-0.0429447155956 0.00117273115747 0)
(-0.804220799715 0.0252705945606 0)
(-0.177220268884 0.00563936983547 0)
(-0.487782432676 0.0153273231609 0)
(-0.107488323941 0.00342041243655 0)
(0 0 0)
(-0.00469218639554 9.05244519151e-05 0)
(0 0 0)
(-0.0228362099988 0.000748185947088 0)
(0 0 0)
(-0.0122125373421 0.000387417024785 0)
(0 0 0)
(-0.0149568200268 0.000397329287177 0)
(-0.0149563268024 0.000397316184627 0)
(-0.00284582157792 5.49032832187e-05 0)
(-0.177217357117 0.00563927717941 0)
(-0.0376509163201 0.00123356224554 0)
(-0.0376495016286 0.0012335158958 0)
(-0.00740717725227 0.000234977097122 0)
(0 0 0)
(0 0 0)
(0 0 0)
(-0.00336207678444 6.48631858482e-05 0)
(0 0 0)
(0 0 0)
(0 0 0)
(-0.33366668209 0.0115433443188 0)
(-0.907004026322 0.0313781996715 0)
(-0.202375084219 0.00700125425783 0)
(-2.24548700155 0.0752639902029 0)
(-0.495294505801 0.0164641001979 0)
(-1.34640182235 0.0447557851946 0)
(-0.300415164224 0.00998610989385 0)
(0 0 0)
(-0.0262469877497 0.00094792787339 0)
(0 0 0)
(-0.0670277225974 0.00222807062859 0)
(0 0 0)
(-0.0406550851404 0.00135141695994 0)
(0 0 0)
(-0.0744496617434 0.00257561850208 0)
(-0.0744467077215 0.00257551630641 0)
(-0.0140283669474 0.000550227565184 0)
(-0.495282510121 0.0164637014491 0)
(-0.11051148022 0.0036735155792 0)
(-0.110506389721 0.00367334636578 0)
(-0.0246572789533 0.000819633382846 0)
(0 0 0)
(0 0 0)
(0 0 0)
(-0.0133641389111 0.000497769785642 0)
(0 0 0)
(0 0 0)
(0 0 0)
(-7.27694884241 0.205018447859 0)
(-4.32415860977 0.119210313319 0)
(-4.45768389218 0.0821703033854 0)
(-2.10411696841 0.0387860453623 0)
(-0.581757922763 0.0159343232529 0)
(-1.58133404502 0.0433126681361 0)
(-0.352840230654 0.00966427799583 0)
(-2.713458301 0.0500182824108 0)
(-0.288822431175 0.00532398154919 0)
(-1.28050491739 0.0236040688602 0)
(-0.136159052094 0.00250987528273 0)
(0 0 0)
(-0.0477509424659 0.0013078961594 0)
(0 0 0)
(-0.104668431483 0.00192799223954 0)
(0 0 0)
(-0.04940109473 0.000909968038256 0)
(0 0 0)
(0 0 0)
(0 0 0)
(0 0 0)
(0 0 0)
(0 0 0)
(0 0 0)
(0 0 0)
(0 0 0)
(0 0 0)
(0 0 0)
(0 0 0)
(0 0 0)
(0 0 0)
(0 0 0)
(0 0 0)
(0 0 0)
(0 0 0)
(0 0 0)
(0 0 0)
(0 0 0)
(0 0 0)
(0 0 0)
(0 0 0)
(0 0 0)
(0 0 0)
(0 0 0)
(0 0 0)
(0 0 0)
(0 0 0)
(0 0 0)
(0 0 0)
(0 0 0)
(0 0 0)
(0 0 0)
(0 0 0)
(0 0 0)
(0 0 0)
(0 0 0)
(0 0 0)
(0 0 0)
(0 0 0)
(0 0 0)
(-0.35282161727 0.00966376817608 0)
(-0.58170561087 0.0159328904325 0)
(-2.06218000786 -0.143721494727 0.0423918701893)
(-2.7008228122 0.0497853672976 0)
(-0.136316611206 0.00251277963403 0)
(-0.286085434919 0.00527352938207 0)
(-1.58123763767 0.0433100275431 0)
(-0.581705548855 0.0159328887339 0)
(-0.352821778427 0.00966377259018 0)
(-2.69792802116 0.0497320064348 0)
(-1.27640147282 0.0235284283947 0)
(-0.285929902138 0.00527066238295 0)
(-0.134758601936 0.00248406021439 0)
(-0.129795300046 0.00355508741129 0)
(-0.12979571929 0.00355509889438 0)
(-0.0289612379595 0.000793247000845 0)
(-0.776102619116 0.0143062157868 0)
(-0.0810996785455 0.00149385587086 0)
(-0.0805169837088 0.00148312263346 0)
(-0.00607351145276 3.69165241941e-05 0)
(0 0 0)
(0 0 0)
(0 0 0)
(-0.0298903406462 0.000550579998061 0)
(0 0 0)
(0 0 0)
(0 0 0)
(0 0 0)
(0 0 0)
(0 0 0)
(0 0 0)
(0 0 0)
(0 0 0)
(0 0 0)
(0 0 0)
(0 0 0)
(0 0 0)
(0 0 0)
(0 0 0)
(0 0 0)
(0 0 0)
(0 0 0)
(0 0 0)
(0 0 0)
(0 0 0)
(0 0 0)
(0 0 0)
(0 0 0)
(0 0 0)
(0 0 0)
(0 0 0)
(0 0 0)
(0 0 0)
(0 0 0)
(0 0 0)
(0 0 0)
(0 0 0)
(0 0 0)
(0 0 0)
(0 0 0)
(0 0 0)
(0 0 0)
(0 0 0)
(0 0 0)
(0 0 0)
(0 0 0)
(0 0 0)
(0 0 0)
(0 0 0)
(-0.0787244892709 0.00215626020872 0)
(0 0 0)
(0 0 0)
(-0.0493556727317 0.000909131365164 0)
(-0.103714557546 0.00191042188407 0)
(0 0 0)
(0 0 0)
(-0.0477487010247 0.00130783476643 0)
(0 0 0)
(0 0 0)
(-0.10369360831 0.00191003599918 0)
(-0.0488290189118 0.000899430403152 0)
(0 0 0)
(0 0 0)
(0 0 0)
(0 0 0)
(0 0 0)
(-0.029625858401 0.000545708235782 0)
(0 0 0)
(0 0 0)
(0 0 0)
(0 0 0)
(0 0 0)
(0 0 0)
(0 0 0)
(0 0 0)
(0 0 0)
(0 0 0)
(0 0 0)
(0 0 0)
(0 0 0)
(0 0 0)
(0 0 0)
(0 0 0)
(0 0 0)
(0 0 0)
(0 0 0)
(0 0 0)
(0 0 0)
(0 0 0)
(0 0 0)
(0 0 0)
(0 0 0)
(0 0 0)
(0 0 0)
(0 0 0)
(0 0 0)
(0 0 0)
(0 0 0)
(0 0 0)
(0 0 0)
(0 0 0)
(0 0 0)
(0 0 0)
(0 0 0)
(0 0 0)
(0 0 0)
(0 0 0)
(0 0 0)
(0 0 0)
(0 0 0)
(0 0 0)
(0 0 0)
(0 0 0)
(0 0 0)
(0 0 0)
(0 0 0)
(0 0 0)
(0 0 0)
(0 0 0)
(0 0 0)
(0 0 0)
(0 0 0)
(0 0 0)
(0 0 0)
(0 0 0)
(0 0 0)
(0 0 0)
(0 0 0)
(0 0 0)
(0 0 0)
(0 0 0)
(0 0 0)
(0 0 0)
(0 0 0)
(0 0 0)
(0 0 0)
(0 0 0)
(0 0 0)
(0 0 0)
(0 0 0)
(0 0 0)
(0 0 0)
(0 0 0)
(0 0 0)
(0 0 0)
(0 0 0)
(0 0 0)
(0 0 0)
(0 0 0)
(0 0 0)
(0 0 0)
(0 0 0)
(0 0 0)
(0 0 0)
(0 0 0)
(0 0 0)
(0 0 0)
(0 0 0)
(0 0 0)
(0 0 0)
(0 0 0)
(0 0 0)
(0 0 0)
(0 0 0)
(0 0 0)
(0 0 0)
(0 0 0)
(0 0 0)
(0 0 0)
(0 0 0)
(0 0 0)
(0 0 0)
(0 0 0)
(0 0 0)
(0 0 0)
(0 0 0)
(0 0 0)
(0 0 0)
(0 0 0)
(0 0 0)
(0 0 0)
(0 0 0)
(0 0 0)
(0 0 0)
(0 0 0)
(0 0 0)
(0 0 0)
(0 0 0)
(0 0 0)
(0 0 0)
(0 0 0)
(0 0 0)
(0 0 0)
(0 0 0)
(0 0 0)
(0 0 0)
(0 0 0)
(0 0 0)
(0 0 0)
(0 0 0)
(0 0 0)
(0 0 0)
(0 0 0)
(0 0 0)
(0 0 0)
(0 0 0)
(0 0 0)
(0 0 0)
(0 0 0)
(0 0 0)
(0 0 0)
(0 0 0)
(0 0 0)
(0 0 0)
(0 0 0)
(0 0 0)
(0 0 0)
(0 0 0)
(0 0 0)
(0 0 0)
(0 0 0)
(0 0 0)
(0 0 0)
(0 0 0)
(0 0 0)
(0 0 0)
(0 0 0)
(0 0 0)
(0 0 0)
(0 0 0)
(0 0 0)
(0 0 0)
(0 0 0)
(0 0 0)
(0 0 0)
(0 0 0)
(0 0 0)
(0 0 0)
(0 0 0)
(0 0 0)
(-0.00202580614387 1.87181030469e-05 0)
(-0.00297053824494 2.74472664336e-05 0)
(-0.00120846221826 1.11499381205e-05 0)
(-0.0017651071368 1.63092887123e-05 0)
(-0.101600937774 0.00140889588525 0)
(-0.0626607362346 0.000868913765781 0)
(-0.00267555475794 2.47216693554e-05 0)
(-0.00157897694661 1.45894775198e-05 0)
(-0.00162057434143 1.49738303489e-05 0)
(-0.000965590689888 8.90907161122e-06 0)
(-0.00741393684737 0.000102583838358 0)
(-0.0223178379907 0.00030948051073 0)
(-0.00471439724279 6.52313304882e-05 0)
(-0.000580107533657 5.35239166418e-06 0)
(-0.000126915769553 1.17099480285e-06 0)
(-0.000353261164873 3.25938210494e-06 0)
(-7.81900229551e-05 7.21424223623e-07 0)
(0 0 0)
(-0.000598990711821 6.45998020307e-06 0)
(0 0 0)
(-1.51189565659e-05 6.33904567484e-08 0)
(0 0 0)
(-9.19240350163e-06 3.85417243607e-08 0)
(0 0 0)
(0 0 0)
(0 0 0)
(0 0 0)
(0 0 0)
(0 0 0)
(0 0 0)
(0 0 0)
(0 0 0)
(0 0 0)
(0 0 0)
(0 0 0)
(0 0 0)
(0 0 0)
(0 0 0)
(0 0 0)
(0 0 0)
(0 0 0)
(0 0 0)
(0 0 0)
(0 0 0)
(0 0 0)
(0 0 0)
(0 0 0)
(0 0 0)
(0 0 0)
(0 0 0)
(0 0 0)
(0 0 0)
(0 0 0)
(0 0 0)
(0 0 0)
(0 0 0)
(0 0 0)
(0 0 0)
(0 0 0)
(0 0 0)
(0 0 0)
(0 0 0)
(0 0 0)
(0 0 0)
(0 0 0)
(0 0 0)
(-0.039775875842 0.000551570379507 0)
(-0.00549829261606 7.60777941034e-05 0)
(-0.00885878546125 0.000122575661826 0)
(-0.0004341104275 4.00534193864e-06 0)
(-0.000652089449393 6.01653647079e-06 0)
(-9.83203771917e-05 9.07157960838e-07 0)
(-0.000149790573606 1.38205034588e-06 0)
(-0.0233578514415 0.000323902333043 0)
(-0.00868489408136 0.000120169592612 0)
(-0.00532857001521 7.37294067068e-05 0)
(-0.000619912065734 5.71965020388e-06 0)
(-0.000360481455717 3.32600048564e-06 0)
(-0.000143613032062 1.32505294463e-06 0)
(-8.38755188619e-05 7.73881740778e-07 0)
(-0.00188521835491 2.60850529173e-05 0)
(-0.00197139276412 2.72774156049e-05 0)
(-0.00042418271612 4.57471525776e-06 0)
(-0.0001293907329 1.19383017805e-06 0)
(-2.83769789705e-05 2.19883325379e-07 0)
(-2.89958462505e-05 2.24678712359e-07 0)
(-3.79985132424e-06 -1.48492905682e-09 0)
(0 0 0)
(0 0 0)
(0 0 0)
(0 0 0)
(0 0 0)
(0 0 0)
(0 0 0)
(0 0 0)
(0 0 0)
(0 0 0)
(0 0 0)
(0 0 0)
(0 0 0)
(0 0 0)
(0 0 0)
(0 0 0)
(0 0 0)
(0 0 0)
(0 0 0)
(0 0 0)
(0 0 0)
(0 0 0)
(0 0 0)
(0 0 0)
(0 0 0)
(0 0 0)
(0 0 0)
(0 0 0)
(0 0 0)
(0 0 0)
(0 0 0)
(0 0 0)
(0 0 0)
(0 0 0)
(0 0 0)
(0 0 0)
(0 0 0)
(0 0 0)
(0 0 0)
(0 0 0)
(0 0 0)
(0 0 0)
(0 0 0)
(0 0 0)
(0 0 0)
(0 0 0)
(0 0 0)
(0 0 0)
(0 0 0)
(-0.00120356254872 1.66532394992e-05 0)
(0 0 0)
(0 0 0)
(-1.22233708739e-05 5.12499033465e-08 0)
(-1.91632013156e-05 8.03470847252e-08 0)
(0 0 0)
(0 0 0)
(-0.000696394926985 7.5104627719e-06 0)
(0 0 0)
(0 0 0)
(-1.79513373639e-05 7.52660059434e-08 0)
(-1.03090194951e-05 4.3223449421e-08 0)
(0 0 0)
(0 0 0)
(0 0 0)
(0 0 0)
(0 0 0)
(0 0 0)
(0 0 0)
(0 0 0)
(0 0 0)
(0 0 0)
(0 0 0)
(0 0 0)
(0 0 0)
(0 0 0)
(0 0 0)
(0 0 0)
(0 0 0)
(0 0 0)
(0 0 0)
(0 0 0)
(0 0 0)
(0 0 0)
(0 0 0)
(0 0 0)
(0 0 0)
(0 0 0)
(0 0 0)
(0 0 0)
(0 0 0)
(0 0 0)
(0 0 0)
(0 0 0)
(0 0 0)
(0 0 0)
(0 0 0)
(0 0 0)
(0 0 0)
(0 0 0)
(0 0 0)
(0 0 0)
(0 0 0)
(0 0 0)
(0 0 0)
(0 0 0)
(0 0 0)
(0 0 0)
(0 0 0)
(0 0 0)
(0 0 0)
(0 0 0)
(0 0 0)
(0 0 0)
(0 0 0)
(0 0 0)
(0 0 0)
(0 0 0)
(0 0 0)
(0 0 0)
(0 0 0)
(0 0 0)
(0 0 0)
(0 0 0)
(0 0 0)
(0 0 0)
(0 0 0)
(0 0 0)
(0 0 0)
(0 0 0)
(0 0 0)
(0 0 0)
(0 0 0)
(0 0 0)
(0 0 0)
(0 0 0)
(0 0 0)
(0 0 0)
(0 0 0)
(0 0 0)
(0 0 0)
(0 0 0)
(0 0 0)
(0 0 0)
(0 0 0)
(0 0 0)
(0 0 0)
(0 0 0)
(0 0 0)
(0 0 0)
(0 0 0)
(0 0 0)
(0 0 0)
(0 0 0)
(0 0 0)
(0 0 0)
(0 0 0)
(0 0 0)
(0 0 0)
(0 0 0)
(0 0 0)
(0 0 0)
(0 0 0)
(0 0 0)
(0 0 0)
(0 0 0)
(0 0 0)
(0 0 0)
(0 0 0)
(0 0 0)
(0 0 0)
(0 0 0)
(0 0 0)
(0 0 0)
(0 0 0)
(0 0 0)
(0 0 0)
(0 0 0)
(0 0 0)
(0 0 0)
(0 0 0)
(0 0 0)
(0 0 0)
(0 0 0)
(0 0 0)
(0 0 0)
(0 0 0)
(0 0 0)
(0 0 0)
(0 0 0)
(0 0 0)
(0 0 0)
(0 0 0)
(0 0 0)
(0 0 0)
(0 0 0)
(0 0 0)
(0 0 0)
(0 0 0)
(0 0 0)
(0 0 0)
(0 0 0)
(0 0 0)
(0 0 0)
(0 0 0)
(0 0 0)
(0 0 0)
(0 0 0)
(0 0 0)
(0 0 0)
(0 0 0)
(0 0 0)
(0 0 0)
(0 0 0)
(0 0 0)
(0 0 0)
(0 0 0)
(0 0 0)
(0 0 0)
(0 0 0)
(0 0 0)
(0 0 0)
(0 0 0)
(0 0 0)
(0 0 0)
(0 0 0)
(0 0 0)
(0 0 0)
(0 0 0)
(0 0 0)
(0 0 0)
(0 0 0)
(0 0 0)
(0 0 0)
(0 0 0)
(0 0 0)
(0 0 0)
(0 0 0)
(0 0 0)
(0 0 0)
(0 0 0)
(0 0 0)
(0 0 0)
(0 0 0)
(0 0 0)
(0 0 0)
(-7.27347322907 0.160051347863 0)
(-5.6516610597 0.123906196548 0)
(-6.45862239344 0.119054418024 0)
(-3.93058748872 0.0724541206247 0)
(-4.98769276941 0.109349452149 0)
(-5.70473209425 0.105157650981 0)
(-8.25032158428 0.181849564447 0)
(-5.65155765964 0.12390392962 0)
(-2.66962174434 0.0585283995394 0)
(-3.06132052139 0.0564305684491 0)
(-3.05264048469 0.0562705657961 0)
(-3.88434226066 0.0851597557823 0)
(-3.88426040632 0.0851579612196 0)
(-4.44357745318 0.0819102736478 0)
(-1.61930998353 0.0355015169827 0)
(-3.42797290382 0.07515438026 0)
(-1.4583729464 0.026882782708 0)
(-2.3938959604 0.0441276595866 0)
(-3.02518868495 0.0663237975229 0)
(-1.28700919067 0.0237239647796 0)
(-1.83494542573 0.0402290771109 0)
(-0.764919156443 0.0167699765326 0)
(-0.361352718964 0.00792224454832 0)
(-0.691656451671 0.0127495851763 0)
(-0.254873157483 0.00469818075523 0)
(-0.318876253387 0.00699099668385 0)
(-0.610079745784 0.0112458485197 0)
(-0.866800841744 0.0190036158097 0)
(-1.26109872964 0.0276481454585 0)
(-1.61921352236 0.035499402182 0)
(-1.86310805202 0.0343434298118 0)
(-0.687424309756 0.01267157238 0)
(-2.35598807879 0.0516523405901 0)
(-0.866707078689 0.0190015601621 0)
(-1.00105158449 0.0184527917168 0)
(-0.595726683667 0.0130606253233 0)
(-0.170663505249 0.00374160191164 0)
(-0.198422430928 0.00365760151285 0)
(-0.325715598343 0.00600404833105 0)
(-0.248334194098 0.0054444428175 0)
(-0.40940153491 0.00897565981324 0)
(-0.474607401823 0.0087486316078 0)
(-0.036976664392 0.000813588246539 0)
(-0.132935228095 0.00291445264083 0)
(-0.0339925888421 0.000626143399311 0)
(-0.0924027554624 0.00170205851869 0)
(-0.117310102504 0.00257188965586 0)
(-0.0300115117666 0.000552811969789 0)
(-0.041901129512 0.000921940014012 0)
(-0.00929260797248 0.00014371204229 0)
(0 0 0)
(-0.00887317574732 0.000119740935896 0)
(0 0 0)
(0 0 0)
(-0.00614685536219 3.73623292655e-05 0)
(-0.0105299195171 0.000162847312986 0)
(-0.0287968497545 0.000633609842392 0)
(-0.0627816925154 0.00137641671188 0)
(-0.0719988676639 0.00132621895776 0)
(-0.0146231256285 0.000197334843616 0)
(-0.0913586205585 0.00200293313341 0)
(-0.0197888752799 0.000435409645642 0)
(-0.0233937404052 0.000430912638279 0)
(-0.00535162241189 3.55283440886e-05 0)
(0 0 0)
(0 0 0)
(0 0 0)
(0 0 0)
(0 0 0)
(-0.00479203564215 2.91273509729e-05 0)
(0 0 0)
(0 0 0)
(0 0 0)
(0 0 0)
(0 0 0)
(0 0 0)
(0 0 0)
(0 0 0)
(0 0 0)
(0 0 0)
(0 0 0)
(0 0 0)
(0 0 0)
(0 0 0)
(0 0 0)
(0 0 0)
(0 0 0)
(0 0 0)
(0 0 0)
(0 0 0)
(0 0 0)
(0 0 0)
(0 0 0)
(0 0 0)
(0 0 0)
(0 0 0)
(0 0 0)
(0 0 0)
(0 0 0)
(0 0 0)
(0 0 0)
(0 0 0)
(0 0 0)
(0 0 0)
(0 0 0)
(0 0 0)
(0 0 0)
(0 0 0)
(0 0 0)
(0 0 0)
(0 0 0)
(0 0 0)
(0 0 0)
(0 0 0)
(0 0 0)
(0 0 0)
(0 0 0)
(0 0 0)
(0 0 0)
(0 0 0)
(0 0 0)
(0 0 0)
(0 0 0)
(0 0 0)
(0 0 0)
(0 0 0)
(0 0 0)
(0 0 0)
(0 0 0)
(0 0 0)
(0 0 0)
(0 0 0)
(0 0 0)
(0 0 0)
(0 0 0)
(0 0 0)
(0 0 0)
(0 0 0)
(0 0 0)
(0 0 0)
(0 0 0)
(0 0 0)
(0 0 0)
(0 0 0)
(0 0 0)
(0 0 0)
(0 0 0)
(0 0 0)
(0 0 0)
(0 0 0)
(0 0 0)
(0 0 0)
(0 0 0)
(0 0 0)
(0 0 0)
(0 0 0)
(0 0 0)
(0 0 0)
(0 0 0)
(0 0 0)
(0 0 0)
(0 0 0)
(0 0 0)
(0 0 0)
(0 0 0)
(0 0 0)
(0 0 0)
(0 0 0)
(0 0 0)
(0 0 0)
(0 0 0)
(0 0 0)
(0 0 0)
(0 0 0)
(0 0 0)
(0 0 0)
(0 0 0)
(0 0 0)
(0 0 0)
(0 0 0)
(0 0 0)
(0 0 0)
(0 0 0)
(0 0 0)
(0 0 0)
(0 0 0)
(0 0 0)
(0 0 0)
(0 0 0)
(0 0 0)
(0 0 0)
(0 0 0)
(0 0 0)
(0 0 0)
(0 0 0)
(0 0 0)
(0 0 0)
(0 0 0)
(0 0 0)
(0 0 0)
(0 0 0)
(0 0 0)
(0 0 0)
(0 0 0)
(0 0 0)
(0 0 0)
(0 0 0)
(0 0 0)
(0 0 0)
(0 0 0)
(0 0 0)
(0 0 0)
(0 0 0)
(0 0 0)
(0 0 0)
(0 0 0)
(0 0 0)
(0 0 0)
(0 0 0)
(0 0 0)
(0 0 0)
(0 0 0)
(0 0 0)
(0 0 0)
(0 0 0)
(0 0 0)
(0 0 0)
(0 0 0)
(0 0 0)
(0 0 0)
(0 0 0)
(0 0 0)
(0 0 0)
(0 0 0)
(0 0 0)
(0 0 0)
(0 0 0)
(0 0 0)
(-1.52450901947 -0.0299376538187 0.0145570722259)
(-5.25496804826 -0.789141895476 0.208468720404)
(-2.32825570818 -0.0632853722491 0.02476068444)
(-0.754814227528 0.000205599359286 0.00317743779854)
(-4.55318096993 -0.446144294433 0.125842120289)
(-1.02723290706 0.0140258534099 0.00113396389132)
(-1.32849405462 -0.0831468967226 0.0258228076991)
(-1.67455356167 0.0241799024367 0.00286115346728)
(-3.56740476123 0.0450283783173 0.00761374240685)
(-2.51943857487 0.0180539917722 0.00659608013074)
(-1.45141595623 0.0267545416738 0)
(-3.81987846668 -0.113103300656 0.0453574653387)
(-1.83469081352 0.0402234950298 0)
(-1.28545541792 0.0236953234536 0)
(-0.595634032488 0.0130585940524 0)
(-0.170659832479 0.00374152139037 0)
(-0.32700212069 0.00602776332164 0)
(-0.198051776181 0.00365076908287 0)
(-0.248305946391 0.00544382351889 0)
(-0.474403890129 0.00874488019384 0)
(-0.409379910671 0.00897518572657 0)
(-0.764795829563 0.016767272732 0)
(-0.361279751798 0.00792064482676 0)
(-0.686908319351 0.0126620609187 0)
(-0.253340712341 0.00466993256956 0)
(-0.866611730161 0.0189994697548 0)
(-0.31882898692 0.0069899604207 0)
(-0.607680551259 0.0112016231896 0)
(-1.61907358489 0.0354963342132 0)
(-3.42750116587 0.0751440379457 0)
(-2.37886122399 0.0438505181647 0)
(-1.44500432245 0.0266363534161 0)
(-3.02475767671 0.066314348161 0)
(-1.83461216142 0.0402217706726 0)
(-1.27491166244 0.0235009661128 0)
(-1.26093335829 0.0276445198811 0)
(-1.61913828134 0.0354977526088 0)
(-1.85388916625 0.0341734943342 0)
(-0.683997709982 0.0126084084703 0)
(-2.35574449636 0.0516470003242 0)
(-0.866636071621 0.0190000034134 0)
(-0.994253395189 0.0183274779237 0)
(-0.764768588279 0.0167666754981 0)
(-0.361275206907 0.00792054518522 0)
(-0.684212373714 0.0126123654543 0)
(-0.252188190131 0.0046486876581 0)
(-0.866605067541 0.0189993236845 0)
(-0.318822080248 0.00698980899982 0)
(-0.603352718766 0.0111218464899 0)
(-0.595608400574 0.013058032102 0)
(-0.170647987763 0.00374126170854 0)
(-0.323292385476 0.00595938026098 0)
(-0.196084130809 0.00361449867405 0)
(-0.409349323833 0.00897451514517 0)
(-0.248295564568 0.00544359590931 0)
(-0.470210962159 0.00866759024422 0)
(-0.281352405564 0.00616832929202 0)
(-0.982056854968 0.0215304719104 0)
(-0.416416176281 0.00767596903844 0)
(-0.415244285754 0.0076543671029 0)
(-0.52565424585 0.01152436737 0)
(-0.525640838891 0.0115240734378 0)
(-0.222592027383 0.00410312953175 0)
(-0.132898650595 0.00291365072103 0)
(-0.103500951112 0.0022691398256 0)
(-0.197173541002 0.00363458021599 0)
(-0.0432928324913 0.000797453863482 0)
(-0.248298725658 0.00544366521258 0)
(-0.0537857704826 0.00118343478016 0)
(-0.103710872758 0.00191035401028 0)
(-0.132893837379 0.00291354519679 0)
(-0.103501119832 0.0022691435246 0)
(-0.196143121376 0.00361558607121 0)
(-0.0431092177009 0.000794071679513 0)
(-0.248281037466 0.00544327741922 0)
(-0.053786698711 0.00118345520373 0)
(-0.103454850057 0.00190563807279 0)
(-0.0627739565759 0.00137624711026 0)
(-0.00928974629911 0.000143667785939 0)
(-0.0204152813976 0.000376049430997 0)
(-0.0203703625476 0.000375222025894 0)
(-0.0254055006557 0.000558990841136 0)
(-0.0254065455944 0.00055901383266 0)
(-0.0489235917682 0.000901172434924 0)
(0 0 0)
(-0.0369647056064 0.000813325120387 0)
(-0.00885215094312 0.000119457212254 0)
(-0.0145296008529 0.000196072753866 0)
(-0.0105259645102 0.000162786148014 0)
(-0.0197848786123 0.00043532170797 0)
(0 0 0)
(0 0 0)
(0 0 0)
(0 0 0)
(0 0 0)
(0 0 0)
(0 0 0)
(0 0 0)
(0 0 0)
(0 0 0)
(-0.00537465259228 3.26686619431e-05 0)
(0 0 0)
(-0.00819780000303 0.000126780617908 0)
(0 0 0)
(0 0 0)
(0 0 0)
(0 0 0)
(0 0 0)
(0 0 0)
(0 0 0)
(0 0 0)
(0 0 0)
(0 0 0)
(0 0 0)
(0 0 0)
(0 0 0)
(0 0 0)
(0 0 0)
(0 0 0)
(0 0 0)
(0 0 0)
(0 0 0)
(0 0 0)
(0 0 0)
(0 0 0)
(0 0 0)
(0 0 0)
(0 0 0)
(0 0 0)
(0 0 0)
(0 0 0)
(0 0 0)
(0 0 0)
(0 0 0)
(0 0 0)
(0 0 0)
(0 0 0)
(0 0 0)
(0 0 0)
(0 0 0)
(0 0 0)
(0 0 0)
(0 0 0)
(0 0 0)
(0 0 0)
(0 0 0)
(0 0 0)
(0 0 0)
(0 0 0)
(0 0 0)
(0 0 0)
(0 0 0)
(0 0 0)
(0 0 0)
(0 0 0)
(0 0 0)
(0 0 0)
(0 0 0)
(0 0 0)
(0 0 0)
(0 0 0)
(0 0 0)
(0 0 0)
(0 0 0)
(0 0 0)
(0 0 0)
(0 0 0)
(0 0 0)
(0 0 0)
(0 0 0)
(0 0 0)
(0 0 0)
(0 0 0)
(0 0 0)
(0 0 0)
(0 0 0)
(0 0 0)
(0 0 0)
(0 0 0)
(0 0 0)
(0 0 0)
(0 0 0)
(0 0 0)
(0 0 0)
(0 0 0)
(0 0 0)
(0 0 0)
(0 0 0)
(0 0 0)
(0 0 0)
(0 0 0)
(0 0 0)
(0 0 0)
(0 0 0)
(0 0 0)
(0 0 0)
(0 0 0)
(0 0 0)
(0 0 0)
(0 0 0)
(0 0 0)
(0 0 0)
(0 0 0)
(0 0 0)
(0 0 0)
(0 0 0)
(0 0 0)
(0 0 0)
(0 0 0)
(0 0 0)
(0 0 0)
(0 0 0)
(0 0 0)
(0 0 0)
(0 0 0)
(0 0 0)
(0 0 0)
(0 0 0)
(0 0 0)
(0 0 0)
(0 0 0)
(0 0 0)
(0 0 0)
(0 0 0)
(0 0 0)
(0 0 0)
(0 0 0)
(0 0 0)
(0 0 0)
(0 0 0)
(0 0 0)
(0 0 0)
(0 0 0)
(0 0 0)
(0 0 0)
(0 0 0)
(0 0 0)
(0 0 0)
(0 0 0)
(0 0 0)
(0 0 0)
(0 0 0)
(0 0 0)
(0 0 0)
(0 0 0)
(0 0 0)
(0 0 0)
(0 0 0)
(0 0 0)
(0 0 0)
(0 0 0)
(0 0 0)
(0 0 0)
(0 0 0)
(0 0 0)
(0 0 0)
(0 0 0)
(0 0 0)
(0 0 0)
(0 0 0)
(0 0 0)
(0 0 0)
(0 0 0)
(0 0 0)
(0 0 0)
(0 0 0)
(0 0 0)
(0 0 0)
(0 0 0)
(0 0 0)
(0 0 0)
(0 0 0)
(0 0 0)
(0 0 0)
(0 0 0)
(0 0 0)
(0 0 0)
(0 0 0)
(0 0 0)
(0 0 0)
(-0.0287919197867 0.000633501369551 0)
(-0.0627799226584 0.00137637790979 0)
(-0.0717273773427 0.00132121810674 0)
(-0.0145575457403 0.000196449862025 0)
(-0.0913447238311 0.00200262846358 0)
(-0.0232530651827 0.000428321401042 0)
(-0.0197882055845 0.000435394910503 0)
(-0.0369695590017 0.000813431908422 0)
(-0.132907058901 0.00291383506351 0)
(-0.0918377150192 0.00169165047517 0)
(-0.0337633671986 0.000621921137225 0)
(-0.117289743846 0.0025714433156 0)
(-0.0418919941584 0.000921739011125 0)
(-0.0298286917996 0.000549444426464 0)
(-0.00535054636969 3.5521200461e-05 0)
(0 0 0)
(0 0 0)
(0 0 0)
(0 0 0)
(-0.00475995645727 2.89323645941e-05 0)
(0 0 0)
(-0.00929064152946 0.000143681630855 0)
(0 0 0)
(-0.00881468367016 0.000118951602261 0)
(0 0 0)
(-0.0105276956952 0.000162812921135 0)
(0 0 0)
(-0.00610899139527 3.71321813418e-05 0)
(-0.0369687849465 0.000813414877081 0)
(-0.132904882986 0.00291378735906 0)
(-0.0914469959876 0.00168445343161 0)
(-0.0336584663622 0.000619988864087 0)
(-0.117284670468 0.0025713320876 0)
(-0.0418919801729 0.000921738703404 0)
(-0.0296548691598 0.000546242613885 0)
(-0.0287906661279 0.000633473785612 0)
(-0.0627768222274 0.00137630993639 0)
(-0.0710689621192 0.00130909010001 0)
(-0.0144528311387 0.000195036768815 0)
(-0.0913402599967 0.00200253059912 0)