/*--------------------------------*- C++ -*----------------------------------*\
| =========                 |                                                 |
| \\      /  F ield         | OpenFOAM: The Open Source CFD Toolbox           |
|  \\    /   O peration     | Version:  v1906                                 |
|   \\  /    A nd           | Web:      www.OpenFOAM.com                      |
|    \\/     M anipulation  |                                                 |
\*---------------------------------------------------------------------------*/
FoamFile
{
    version     2.0;
    format      ascii;
    class       volScalarField;
    location    "5.1";
    object      p;
}
// * * * * * * * * * * * * * * * * * * * * * * * * * * * * * * * * * * * * * //

dimensions      [1 -1 -2 0 0 0 0];


internalField   nonuniform List<scalar> 
28582
(
17105.7849693
17103.8172917
12208.2971694
12206.397131
7311.5174773
7309.58699935
3639.647907
3639.85050113
10.4108898995
19.3749430924
-27.1315504871
3640.06024092
616.413310742
621.30957457
3638.29773669
3639.0133796
623.533985543
1804.03733486
1804.69947363
17106.7826015
17101.9643441
17100.1936977
12208.7304392
12204.0860852
12201.8238814
7310.7758451
7306.19672625
3636.61378363
3635.32609121
22.4930921658
-27.0553246414
-27.0556355108
3636.71313166
3638.1033036
613.738153466
614.033961281
1800.72844962
3631.1406211
3635.80028685
3631.15882384
1801.80687211
626.221804607
1802.2850246
1795.5732738
12.5018219939
19.1488406837
-23.1837948789
-23.1699125191
15.6724863173
-23.1864532501
1802.83834807
1804.25051877
617.621602231
616.913364068
1803.64861385
618.062163963
1803.56045359
1804.99377903
1805.2404984
619.327836462
621.559215844
1805.77934832
619.684059101
1804.38959944
1806.29526498
1805.75046244
625.464995072
623.766820357
1806.26601071
625.754110772
1805.82196376
1803.70781235
628.200982338
628.398670054
1805.56754525
627.283299948
627.464384764
1805.17110997
1805.58876433
628.932187288
629.758767102
1806.28730108
628.639123145
1807.17761057
627.995961991
9.46274441684
-23.2301778395
9.58798443941
9.86779852998
-23.242530603
-23.2236188903
22.5796715255
-23.1320090736
-23.117304253
25.2234738884
-23.1155981822
24.6369264492
-23.0982903421
1799.23685954
1798.72713109
613.761589378
613.8617443
1798.58714786
1799.59391769
613.721525787
1799.14148808
1798.90893737
613.730880431
613.879055971
1798.60135855
1799.3234097
613.712306822
613.787926931
614.634763899
1801.11791384
1799.84611523
614.082106258
1800.09782702
613.770918541
1801.60966627
628.481546427
628.681889808
1798.9054883
628.182467096
1798.84559906
628.233475922
1795.6578249
1792.40004381
627.239661134
626.259794268
1795.70791369
1792.14971265
627.254880225
1799.52086976
1802.98372525
629.156651843
629.890040801
629.31722458
1799.13168534
628.598640552
628.082184756
626.572931424
1791.295769
1795.58176598
626.352684106
1791.75996145
627.533192564
7301.87145582
3627.22872535
26.355094182
-27.2321824393
3638.42068612
615.707955606
3626.86901522
3624.22221924
624.878473893
624.666438808
622.943442681
3623.39026739
3624.36988192
625.214262866
631.683759882
10.7358718755
27.1745038947
28.5947827965
-23.1056278249
-23.1255829804
-23.1256356083
30.8107842573
32.8955519261
1801.79508625
1801.74250729
614.820987805
617.034167645
1800.73360579
616.48889069
1802.60812632
1785.91023077
1789.23440338
623.742798084
624.855740172
1786.36572158
1788.82003809
623.607194919
1785.21486821
1787.48468169
624.770151378
623.267640862
1788.22318399
623.377342735
1784.37533493
1783.8316603
1783.60535914
622.892525446
622.224279141
1783.99024668
622.378488906
1783.17683175
1785.51612275
1783.97324163
625.01552656
627.622587235
1784.48373067
627.384841121
1785.20731032
1786.77318259
1788.10851581
631.660316945
629.910338616
1788.14876274
629.674885792
1786.63087402
3660.35971716
3653.26159865
3645.25883686
3644.75069886
10.8808131459
14.0721373609
13.8129635318
16.0920596699
14.8106338607
-27.0630484396
-27.3199921683
-27.0494985025
-27.3148332341
-27.0841346362
-27.3409749133
3665.19502448
3663.97665479
629.376710667
629.035044709
3664.03567053
629.77897644
3661.8713607
3659.43410593
629.05997832
628.668648355
3657.64616268
3656.50094917
3652.67511761
629.61119648
627.317595019
627.84672504
623.946173151
3648.17930145
3643.7279076
626.860250782
623.612700353
623.468926688
621.957165046
3649.35272752
3647.75402185
627.010765178
622.853742625
621.679630468
3642.2660546
3644.30413417
3641.65440739
622.656844073
621.865938783
621.739871891
621.48561191
621.908903832
620.785602689
9.14007437466
9.09955838313
9.92703334654
-23.2642316568
-23.2789862701
-23.2635353459
-23.2812966644
-23.3114461186
-23.2642864648
-23.3120441601
-23.2700265979
9.09219015743
9.92170875439
12.8559713102
12.4137023705
14.4049523738
-23.2470803776
-23.2619940128
-23.2349243569
-23.2549756746
14.2725064889
15.2378079174
15.0781895637
-23.3037313903
-23.2629937286
-23.2960398414
-23.2583877039
15.476072475
15.4369313252
-23.2193926443
-23.2364844344
-23.2334534131
15.9788842828
16.1813913742
16.2977172331
-23.2858150271
-23.261523992
-23.291351078
-23.2732191877
1828.99008117
1829.48963683
628.851033244
629.252980205
1829.2258885
628.698312939
1829.18502773
1828.60879375
1827.80217226
629.139872258
628.384188061
1828.65999643
1828.03032242
628.552853047
1827.84858368
1827.20641419
629.80401689
630.015279866
1828.43268833
1826.16824697
630.284255484
1826.32124177
1826.62133552
628.300127393
629.051199913
1827.23554072
1825.64227442
628.524524079
1825.6602893
1822.42217103
628.891194665
628.768936815
1824.17708193
1824.5973926
628.544167335
1821.68970891
1825.67182178
629.364287126
629.146517461
1824.09954224
1823.99191308
628.484916205
1819.19995356
1819.94165241
628.27471812
626.318414762
1822.04371501
1816.61057698
627.386775226
1819.01473591
1819.57539984
628.552875724
626.593118744
1821.86889821
1816.25971514
627.568719227
1816.24149134
1811.18465222
625.232766609
624.922236246
1813.63502577
1813.22495653
626.309097003
1812.55278387
1817.92006863
626.187521087
625.13556013
1815.5735026
1814.27249113
624.970821023
1810.2735441
1808.35019595
625.06995134
622.764066282
1812.39745058
624.625637664
1806.92921426
1810.25948563
1809.90586754
623.956293627
622.988358593
1811.61743903
1808.72236308
623.827873734
1808.45274146
1804.87594118
622.157680132
622.464064131
1806.88869969
623.733851399
1805.80741928
1811.59701356
1817.25523021
625.486943432
626.100302262
1813.72094627
1815.1325746
624.126287323
1809.37092773
1809.31406585
623.777531489
622.157194883
1810.8625383
1808.10676719
622.887229342
1808.48221484
1807.30564816
621.748999334
622.040124892
1807.50913066
1808.29062017
622.208487362
1806.25581391
1808.43779039
622.505705503
621.694719565
1807.3415007
1807.39916833
622.185966724
1804.90106193
1804.17302464
622.45611006
621.72013222
1805.70138722
622.468216924
1803.44729188
1805.56236783
1806.55350989
621.623965836
621.826283315
1806.74581904
1805.30849277
622.089339436
1804.4483224
1803.16862248
621.728832799
621.99507457
1804.2902242
622.420945685
1803.11728683
1806.01844685
1806.77744872
621.630450291
621.439426057
1805.76604076
1807.21799129
621.205277024
1803.38166582
621.421671876
1804.58301549
17104.5106493
17102.9263589
17101.5980346
17098.8013522
17098.1382129
17099.8649535
12206.7218741
12205.4680769
12203.7323651
12200.2147461
12199.8575732
12201.7418416
18319.7880532
18322.4352967
17093.2109327
17097.6527403
17099.7735731
17100.5794651
17102.026358
17098.9901212
18320.9687497
18323.5244975
17099.9380235
17100.4075532
17100.501032
17100.244409
17099.9514667
17099.3945224
17101.4662473
17099.8352938
17100.4047997
17100.3937204
17099.582143
17099.0741007
17098.8438559
17099.3331646
17104.6407947
17102.7160158
17101.8568345
17101.2117651
17100.0850803
17099.1719375
17098.8541422
17099.9516564
17100.1270915
17098.889293
17098.3625671
17099.9056538
13419.2315953
13422.0894723
12198.8085506
12200.256893
12201.0286229
12200.8470266
12202.9911255
12197.0459562
13422.8600341
13424.7913964
12203.6447078
12203.6399476
12201.9065261
12201.0004643
12201.4998329
12199.1116165
12202.6973241
12202.7308879
12203.4138555
12202.6063812
12200.833363
12200.2027633
12199.9837464
12200.0587532
12206.3950402
12204.9360491
12204.5450949
12203.4610372
12201.70657
12200.4111542
12200.3708602
12201.5512024
12201.6922413
12200.2217359
12199.9572525
12201.7593128
8518.45270921
8523.1984201
7303.55782538
7303.7663667
7300.97972538
7299.581754
7303.40967461
7297.54798435
8523.052234
8527.12453002
7303.6909664
7303.51301108
7300.58895409
7299.45999898
7301.69762254
7299.61134827
7303.95092014
7305.03296778
7306.3191469
7304.4294173
7300.36038147
7299.12408173
7300.27790241
7301.27951282
7310.51198709
7308.04524551
7307.52192956
7307.43725231
7305.03853753
7300.87446634
7299.5548998
7300.65064821
7302.75614923
7309.55040295
7308.41156106
7305.63482144
7301.7080051
7299.97061647
7300.29065388
7302.88001505
7299.77973067
7299.87693748
7302.64517604
3620.8868087
3628.19122175
3633.40146048
3634.34126135
3625.12672291
3621.7234582
3628.65979202
3635.93496506
3622.52914839
3623.49944787
3629.69775978
3634.31821493
3634.41559955
3625.05995833
3621.3835012
3627.33536072
3632.96745735
3638.80950437
3630.87884656
3627.98863428
3631.64749455
3636.0873921
3634.42238374
3624.57228602
3620.75614558
3626.53721088
3632.33065043
3634.94075252
3632.78014332
3634.59705559
3637.22992004
3634.3024403
3624.96787618
3621.72879893
3626.53342141
3631.39532345
3637.15919226
3638.25177035
3634.56258282
3626.62145903
3623.64769218
3626.54918078
3629.67476288
3623.94490175
3625.88518567
3628.14398538
9.45695042449
8.18348144172
10.2611133336
16.5391457568
28.1941294623
35.0144062333
41.9923382225
44.8180431177
13.8395257356
12.3317430294
11.6234909318
11.3175253008
11.9358480081
19.1065093135
28.423074078
35.2537475815
42.5562797839
45.9153859452
14.7925385751
13.2751836791
13.9476838865
14.6587545753
16.0384157746
22.3111290783
28.8656002639
34.9563453039
41.6894502738
44.6952092928
12.5872295247
12.2693672503
12.3321435273
15.8534263847
23.1983445835
28.4270632627
33.2679981878
39.0534847103
41.7754065708
10.7789237302
16.2328404425
22.8734048445
26.636259417
29.9870515466
34.8100828886
38.243557267
29.8527490779
34.171744523
36.216372151
-27.1380132896
-27.0900281362
-26.9969875349
-27.0228068985
-27.0572725163
-27.1555905861
-27.573212795
-27.1527283894
-27.3813638215
-27.8314684098
-27.1312501545
-27.1227484767
-27.0916721994
-27.0615161121
-27.1038202051
-27.2347680865
-27.7188419185
-27.1689292384
-27.4071367834
-27.9025333715
-27.2612513388
-27.1544577043
-27.1283912829
-27.113771639
-27.1211783575
-27.1218639382
-27.6988815298
-27.1505647223
-27.3920396918
-27.749678015
-27.0668161221
-27.0441410837
-27.0184103915
-27.0857702827
-27.0915248861
-27.6417108171
-27.1380241988
-27.3603779883
-27.6789782467
-27.0747003997
-27.2242734186
-27.3644424729
-27.6156669783
-27.1583324077
-27.355454199
-27.7947487174
-27.1402339814
-27.3117777307
-27.8008179626
18321.2809682
18319.5092595
18321.5465538
15869.9331013
15871.6333485
15870.2432191
15871.7992442
18322.7556858
18323.0924933
18323.4703122
15872.9711527
15869.4026822
15872.9245351
15872.0667128
18322.2620144
18323.2102565
18323.1492537
15871.7720187
15873.2447032
15873.8481924
15874.341879
18323.5967029
18323.9348403
18324.3559084
15874.3367141
15874.2810186
15875.2585182
15876.1928601
13420.8762113
13420.3931238
13421.6177205
10968.497302
10970.5587548
10970.0288084
10971.7959352
13422.4802768
13422.3709503
13423.9084046
10972.1446103
10972.3530934
10973.1985064
10973.7895904
13424.019434
13424.4795731
13425.1792813
10973.0003082
10974.559049
10974.9717617
10975.5649694
13424.9168334
13426.1814261
13429.3761762
10975.7406512
10972.7246984
10976.2639364
10979.1667921
8521.08055423
8520.32326504
8522.62056336
6069.36498388
6072.48339792
6071.17210369
6073.7268426
8524.02193396
8524.62408039
8526.00143534
6075.44029607
6077.01336997
6076.20270777
6079.08493022
8525.17049911
8525.19321389
8526.20785767
6073.3013606
6075.82194279
6075.26450057
6077.08331183
8524.75247221
8527.3836596
8529.7158231
6078.22265335
6078.98065593
6078.92574666
6081.62608478
3617.58999382
3619.53892604
605.379542864
607.098015664
3624.69725224
3622.33309448
3625.54306443
606.113374798
607.451775059
608.040880262
609.599652946
3631.01765339
3628.94156864
3631.6544274
608.397114769
612.317499736
610.305318837
613.66562531
3634.74736264
3633.49269863
3634.51618717
613.780042021
620.956825645
615.218508432
622.925053161
3630.38778414
3633.89476592
3630.10508408
625.17139437
629.570538431
626.708182597
628.972397986
3621.98741948
3624.948695
3621.6948487
625.996034296
618.781835633
625.219504742
619.39727681
3624.26684458
3621.16214564
3623.69849184
622.220894808
637.870857419
622.800834219
638.189951086
3632.5711988
3628.02894801
3631.74388378
641.459533344
649.630272805
641.914278255
650.497722858
3629.82248029
3634.38703716
3629.83066329
652.084513025
622.283970393
652.611419628
624.109470645
3638.6018673
3632.62863617
621.562547204
610.568905506
620.707139698
613.888270941
3621.5768727
3627.52161109
3625.17055208
608.520156687
607.944071518
612.161782158
611.750855199
3626.56148412
3625.49234445
3627.72131215
608.797973978
611.006934882
612.138322757
614.579369865
3632.50941293
3630.59737072
3633.73732523
611.919857289
614.977469434
615.722261454
619.056834517
3635.24357221
3636.03759384
3636.63631651
616.564075759
624.215451905
620.484662813
627.864069488
3630.47883816
3634.81867566
3630.25579544
627.726405732
628.465587576
630.433916224
628.025743007
3621.58503847
3624.97894062
3621.47982987
624.955683178
619.861146682
624.626729766
620.260841184
3623.56834357
3620.82414235
3623.20890326
623.313154462
638.058800012
623.792174423
637.505694801
3630.72144033
3626.88128432
3630.0156328
641.829839579
650.345151767
641.143912908
649.448964392
3630.22015766
3632.3512102
3631.37660106
652.282887498
624.297574508
651.282669784
624.70025752
3634.76179272
3638.92095256
3635.85205897
620.682376662
614.644789245
620.42075242
615.790683841
3628.48197644
3632.98999353
3631.1192767
613.267892258
612.74667636
614.672200289
614.26700351
3629.38269984
3630.51582657
3631.34537191
613.219588827
615.404436773
614.529561048
615.934916476
3634.13949747
3632.93643691
3635.0593929
616.445631465
619.925378972
616.612543061
620.116078327
3636.5951486
3636.65830393
3636.69980507
621.258693988
628.41736916
621.808416701
629.352252072
3629.78313551
3634.33066549
3629.62508756
631.067375028
628.140259605
631.646942958
626.966335972
3621.26787761
3624.62009863
3621.40678769
624.577028242
620.277753506
623.602690585
620.872304626
3623.1134618
3620.94974832
3623.30141255
623.872175971
637.254042211
624.528995605
636.152778326
3629.65424268
3626.45005595
3629.35571692
640.774393181
648.977609628
639.480942541
646.746287948
3632.3509534
3631.85668641
3632.80519812
650.96003952
624.43545845
648.907297295
622.74112125
619.70391773
615.688710171
3633.35698309
3635.45294472
614.706089086
614.213173064
613.932509064
3633.35016293
3634.88407227
3635.23841336
614.3478779
615.674001154
613.79244445
614.440323384
3636.08945604
3636.06800314
3637.10153682
616.342649276
620.01095998
615.37262897
620.183340988
3636.84732685
3637.78685673
3636.95745624
621.892132221
629.459920543
622.499213889
628.907778842
3629.61991842
3634.38661518
3629.95470281
631.219229608
626.57859551
629.648301814
625.9531951
3622.07432436
3625.80465727
3623.18571697
623.440591919
621.356229357
623.687062372
622.4348642
3623.8139169
3622.80502531
3624.49852355
624.751416266
635.564550445
624.841030433
633.188760677
3629.09083259
3626.65285352
3628.71240545
638.752930065
645.606636073
635.910010356
641.738588339
3632.98547094
3630.53484525
3632.71213518
647.93598981
622.090056878
643.855325655
619.094146766
3637.92652099
3638.9127524
614.890002358
620.470134981
621.075075858
3637.18588936
3639.00436548
3637.73354096
622.862290267
628.855872577
623.52613906
628.295131865
3630.42614208
3634.98126994
3630.94828769
629.458578731
625.971054163
628.605984803
626.148388984
3624.20116128
3627.24397861
3624.85120433
624.025754618
622.665891116
624.758789751
622.972303764
3624.90115726
3624.12926731
3624.97412692
624.739242817
632.349074002
624.549683984
631.22089468
3628.20794142
3626.25061908
3627.58142308
634.772337626
640.365631272
633.181093728
637.35053253
3632.20616427
3628.51229484
3631.51282008
642.186480282
618.065363151
638.416986629
615.79068332
3624.77009007
623.029042663
3624.68835941
624.644566434
631.309749242
3627.17565637
633.168504935
636.84681649
3631.10511958
637.732670108
614.499064054
-23.2407048502
-23.2570746723
-23.2458277416
-23.2552830581
10.708036625
11.3015333348
-23.2527145291
-23.2514867685
-23.2475245763
-23.2530321693
7.94846291602
10.3589391928
9.02989654662
-23.2710164053
-23.2504196461
-23.2638694701
-23.2441078258
9.16651580447
8.74953724163
9.36256824162
-23.2270229847
-23.2149087526
-23.23829295
-23.2466158638
12.2861937548
10.5003152212
12.8468390216
-23.2085777996
-23.2090967847
-23.2384186142
-23.2158668733
22.9520596259
17.2928281411
23.3430659124
-23.153439035
-23.095647234
-23.1639728506
-23.1039820095
31.3274989239
28.3076390801
31.5014371812
-23.0603302494
-23.0680921928
-23.0855171983
-23.1080038722
39.9205660556
35.2829994509
40.1483413633
-23.013307077
-23.0201292015
-23.0348875031
-23.0181891824
43.8844513761
42.4978014549
44.7119308327
-23.0483285623
-23.0590733897
-23.0453020837
-23.0566503392
45.4696274474
45.5942681907
46.4523144911
-23.1144556513
-23.0873433892
-23.1179018855
-23.1139963418
13.1440757373
14.2944473099
13.3630405589
-23.2444278691
-23.252280198
-23.236295345
-23.2360286657
11.8877503301
12.6399164274
12.8344544832
-23.2375723749
-23.2388173594
-23.2182392036
-23.2217449346
11.3644539474
12.9993148483
13.436043438
-23.2411817893
-23.2435651287
-23.2218896527
-23.2303362969
11.1416486783
13.7464697129
13.8478562124
-23.265439753
-23.249132903
-23.2247390655
-23.230985222
14.4283417862
14.571069259
17.0818641584
-23.2242918976
-23.1926917897
-23.2095693749
-23.1785803553
24.1959319053
21.2398004753
25.105702428
-23.1685166947
-23.1060331495
-23.1625178647
-23.1056807128
31.5211055616
28.6287200864
31.4511190068
-23.1269171081
-23.1624622774
-23.1452629123
-23.1853673443
39.9037595351
35.1600751406
39.6383374969
-23.0580917511
-23.0316851486
-23.0821401383
-23.053180852
45.0618549452
42.2787556463
44.7685322741
-23.0531403306
-23.0587458928
-23.0717224699
-23.0705828004
47.0102626642
45.5517370194
46.563938709
-23.1265495234
-23.1323337349
-23.1344563568
-23.1360549912
13.6451841726
15.0711486845
13.8558537528
-23.241401579
-23.2303556944
-23.2474248279
-23.223783529
13.5668426658
13.3724759915
13.5317264422
-23.2066682556
-23.2074226047
-23.196500132
-23.2048888305
14.2722800025
13.6459440006
13.5297256952
-23.210514915
-23.2171861751
-23.2122257936
-23.2108638299
15.070836689
13.7380253981
14.5859196755
-23.2097830034
-23.1871372695
-23.2036004071
-23.1790012581
18.2396602453
16.1899352374
18.8296568617
-23.1795050803
-23.153823684
-23.1634130142
-23.1487244831
25.7893606332
22.9582756511
26.3511169269
-23.1168403744
-23.064773103
-23.102370099
-23.058862036
31.273721218
28.9626005926
30.7850779522
-23.1314989606
-23.1735493875
-23.138493835
-23.1767583116
39.2003404115
34.4710190854
38.2184061254
-23.1047966896
-23.0750950383
-23.124132517
-23.0908853824
43.9329177844
40.736301995
42.4118671677
-23.0921463798
-23.0858300655
-23.1144266536
-23.1007055243
45.2759762866
43.3249844294
43.7627448251
-23.1360559628
-23.1280907638
-23.1471698276
-23.1134330329
12.4403165892
10.8132889218
-23.1821670843
-23.1995972184
-23.2090138541
12.0933654885
10.5412723351
10.4756679045
-23.212232921
-23.2112778254
-23.2164821367
-23.2092395892
13.5503492493
11.2175442419
12.9620954222
-23.1980151371
-23.1779770108
-23.1935652128
-23.1759555142
19.1003526312
15.8392759586
19.4818849659
-23.1578726489
-23.1448038486
-23.1548730619
-23.1522077678
26.2812972805
23.0437620931
25.6464192211
-23.1023417003
-23.0665487878
-23.1118490558
-23.0804579792
29.9290302133
27.4322401736
28.714937472
-23.1428002463
-23.1783638453
-23.1418008751
-23.1756495899
36.5774497082
31.4759266975
34.3884028998
-23.1372428131
-23.1174249673
-23.1256115434
-23.1048018334
40.5152907676
36.8385025552
38.3946413027
-23.1324252392
-23.1144269874
-23.1341968184
-23.1174090598
42.635711782
39.8933150862
41.1385391186
-23.1601568711
-23.1121663741
-23.1596164826
-23.1140445779
13.0703278168
12.8689873956
-23.2019473087
-23.1895770099
-23.2107910017
-23.1968759511
19.6430773943
15.9117732173
19.4517239898
-23.1701003445
-23.1767806838
-23.1889495808
-23.1804768349
25.0879050778
22.5578856309
24.6291229509
-23.1527102555
-23.1266472488
-23.156039169
-23.1377981699
27.8215561844
26.2039156584
27.5861246776
-23.1375699359
-23.1645397891
-23.1563762334
-23.1734169379
32.5799919702
29.4133777795
31.9680603504
-23.1199875723
-23.1197126925
-23.1129621055
-23.1251370139
36.5783284718
33.9803197367
35.6459365524
-23.1381946922
-23.1203636024
-23.1454752413
-23.1201687691
39.7849693048
36.9911391225
38.5559056864
-23.1679301007
-23.1007265872
-23.16968916
-23.0870790286
27.8302476515
-23.1080727402
32.3934401506
-23.0877048624
-23.1141062544
-23.1032422189
-23.1081478209
35.3566499608
-23.127690655
-23.1155633547
-23.1240938719
-23.114884923
37.2894814034
-23.1654151443
-23.0737929529
-23.168205642
-23.0785764861
1780.03169805
1781.44701132
604.362234897
605.707565192
1781.7258416
605.119243227
1779.51949585
1780.68108481
1783.22716881
606.378642697
606.100428241
1782.35229122
1781.64365739
605.678382211
1785.62524501
1783.33947211
606.536254428
606.444544393
1783.6328589
606.845371603
1785.28498309
1787.47787228
1789.09523125
606.621439025
607.653059487
1789.33746008
606.912400179
1787.22468394
1786.24128582
1785.17739883
607.11333123
608.489644464
1784.31110052
1787.00403963
607.520896303
1787.98641878
1790.39382751
608.431734563
608.833824863
1789.79716657
1788.66146083
607.787164683
1792.72708832
1790.84500713
609.667303463
608.640414013
1791.07224602
609.755121939
1792.50587436
1794.24010041
1795.60924628
610.976843991
612.380554758
1795.80369445
611.047021875
1794.03139588
1793.13916042
1791.97939427
609.246129611
611.283037806
1791.47934603
1793.5881639
610.389161119
1794.68495352
1796.88928832
612.876017296
612.358311295
1796.26096737
1795.14863456
611.558460974
1799.28651009
1797.2749038
615.584030029
613.857844181
1797.48350491
615.69201889
1799.05114148
1801.09332863
1802.60334489
617.89220698
621.189961256
1802.88237144
618.059690177
1800.84682685
1799.761509
1798.61252447
614.335349522
617.0918301
1797.94847501
1800.40982513
616.245126181
1801.59550881
1803.90119214
621.904466414
619.723155286
1803.38471769
1802.19987833
618.749946931
1803.75703932
1804.0651359
628.434447116
625.479196458
1804.35831475
628.807148023
1803.6018599
1800.36636657
1794.32347153
630.64840826
629.81216644
1794.30411732
630.965937196
1800.32292336
1803.60091924
1804.65331293
625.816648308
629.353315422
1804.46245885
1803.32007147
628.934817656
1799.98988826
1793.2048917
629.458401649
630.517728002
1793.93993752
1799.26197571
630.708968798
1779.97085576
1787.28342894
622.451497624
626.086878893
1787.0377882
622.485791926
1780.4131043
1775.47300891
1775.46152467
619.060827472
618.778144264
1774.97001355
619.034562003
1775.93661425
1779.69126019
1786.05570638
625.744336484
621.936133582
1786.70716368
1779.31227454
622.20476623
1775.52335429
1775.38611654
618.975977969
619.266439341
1775.14895969
1775.50890179
619.109585283
1780.47351296
1777.48204668
627.718493771
622.29534667
1776.99701737
627.829983554
1780.9806757
1784.14583232
1788.19570628
633.484202128
638.069203638
1787.91054201
633.610946943
1784.63236589
1780.54362696
1777.28054133
622.511209297
628.133174958
1777.14742347
1780.47001101
628.00398677
1784.02730468
1787.40563242
638.191843978
633.701347207
1787.66638795
1783.80910707
633.677764215
1794.60558453
1791.55105106
644.699904133
641.707354142
1791.35126907
645.112008497
1794.84156951
1796.9127952
1798.01901023
647.533995264
650.078571718
1797.69434466
647.942852215
1797.1949532
1794.38237863
1790.86439168
641.895698828
645.335627823
1791.13424858
1794.12587582
645.284383571
1796.70757452
1796.89295091
650.399895688
648.366420992
1797.38994881
1796.39127815
648.222449422
1793.45356836
1796.62432723
654.265522629
652.655843482
1796.4023126
654.832633836
1793.41918952
1788.44314458
1789.02341051
656.610848978
622.97276884
657.371646143
1789.16681892
1788.34243752
1792.85571436
1795.42601834
652.753450254
654.415689552
1795.97865906
1792.20630475
654.57461427
1787.7048492
1789.29546446
623.63869383
656.571239102
1786.93027862
656.624602083
1789.28072656
1798.22069471
1803.33142523
617.477946736
620.195761091
1797.35431348
617.983045395
1802.7860373
1793.84425134
1787.47675633
613.074137359
611.871760427
1791.66185378
1790.05141193
615.213678972
1798.93849687
1802.46979336
619.973318526
618.461207722
1799.55833725
618.305894564
1802.53703128
1795.27450932
1793.46046325
612.843777603
616.157433289
1792.00504254
1796.48096006
615.734085002
1785.70958278
1784.76920317
607.141456465
609.176758492
1783.39828628
1787.27042619
608.681068331
1785.18571472
1784.27927322
607.125449599
609.0707223
1783.28527878
1785.65187587
608.729934552
1787.67324891
1791.1325229
610.78332393
611.393044986
1789.37226435
1789.60279508
610.251411529
1787.06092084
1788.66064746
610.472676688
611.30091808
1787.16870748
1788.73017338
610.370797939
1788.16441073
1785.87827745
609.425439426
609.66239275
1787.53502724
1786.73871086
610.490988525
1789.68120278
1790.89118327
610.288554191
612.278135061
1789.14637598
1791.3502499
611.431375174
1788.94616415
1789.03977259
610.84192299
612.653349119
1787.81293452
1789.86869871
611.645053786
1790.3304317
1792.37467689
613.596779754
613.558678699
1791.81210948
1791.02271001
612.71045732
1794.7429637
1792.51260192
612.855790854
613.185890402
1794.13362816
1793.02560786
614.267653666
1796.40590245
1797.55423655
613.658310938
616.368243308
1795.73503705
1798.14480145
615.153831233
1795.2968324
1793.94388129
614.598222352
616.811705819
1793.48771413
1795.75918525
615.706804198
1796.95848738
1799.07848379
617.901597107
617.801384692
1798.70579385
1797.42769563
616.730598495
1801.65681011
1799.24933671
618.469134324
617.868126277
1801.03824671
1799.80205246
619.847297252
1803.16646076
1804.21483632
621.134064048
625.318446013
1802.71462374
1804.34861842
622.353687513
1802.22293477
1800.81773787
619.431628024
622.55439973
1800.46527295
1802.61019014
621.49456437
1803.60501681
1804.80228466
626.850090057
625.209654695
1804.56364309
1803.96536058
624.099678697
1802.07483621
1804.54339537
629.773311936
628.453376764
1802.69244276
1804.27768976
629.957404621
1797.54659962
1792.346246
630.10218102
628.00623699
1798.38022562
1791.45969425
629.809959549
1801.61994823
1804.21383021
629.496607953
631.16991993
1804.15792466
1801.4476482
630.491842029
1797.00069676
1790.60341292
627.937473725
630.191140559
1791.00825565
1796.65662573
629.844325566
1779.15255482
1785.69263744
621.915866846
624.77746174
1779.26401895
1785.2121454
621.777690196
1775.77688396
1775.6818324
619.626664422
620.127189595
1775.68031959
1775.94524364
619.692153705
1779.0882095
1784.6113513
624.739509102
621.661706095
1784.9375584
1778.91637082
621.779029752
1775.93570082
1776.41885544
620.269804209
619.740735999
1776.20824605
1775.98770395
619.782151535
1780.34581336
1777.5760168
628.400754185
623.519884355
1780.35137603
1777.83047801
628.455677042
1783.54795082
1787.25367216
633.685391071
637.93043543
1783.62405523
1787.09289994
633.617996218
1780.4097835
1778.40613301
623.742104264
628.589743096
1778.11301388
1780.53874372
628.580937458
1783.48486096
1786.86567103
637.697034785
633.407717091
1786.94966128
1783.48574858
633.536059382
1793.49571267
1790.70553928
645.218607325
641.64619774
1793.83884516
1790.45801013
645.03440295
1795.58458962
1796.44087834
648.272786799
650.140380452
1795.98528648
1796.08177793
648.022024462
1793.23214791
1790.11457766
641.360853792
644.479393614
1790.25954054
1793.06258049
644.737550717
1795.25146713
1795.56182643
649.730034212
647.418160311
1795.75940195
1795.05436468
647.709944649
1791.28401109
1795.01366932
654.109652845
652.043351521
1791.71212885
1794.69672616
653.831656989
1785.87013444
1789.27204164
656.39010735
624.678623568
1786.39493335
656.010494565
1789.48724415
1791.06979562
1794.25314456
651.524398186
653.037587322
1794.40452402
1790.94122537
653.293450527
1785.74050168
1790.5481327
624.828553658
655.246697776
1785.50887463
655.595957669
1790.00856841
1799.96999597
1802.2458379
618.763843522
620.557166155
1799.8553156
619.060125714
1801.85477486
1797.78286609
1794.56645808
616.636257279
615.202525433
1797.23244624
1795.64795586
616.989980609
1800.11445614
1801.84186678
620.500009156
618.961261003
1800.29952528
619.150405819
1801.70789316
1798.22853547
1796.80681422
615.611681847
617.249912393
1796.36562825
1798.56359346
617.228835287
1792.40984934
1792.63660357
612.659775479
614.006233567
1791.23904594
1793.79470749
613.530496171
1791.64700549
1790.0541956
612.380236575
613.450543097
1790.27362644
1791.35379198
613.504386937
1793.47983123
1795.508729
614.472947444
614.219127281
1794.71094122
1794.58568969
613.998499014
1792.83096078
1793.68487293
613.97913526
614.20188323
1792.5811046
1793.95377031
614.034630367
1792.00487098
1790.2666943
613.691366209
613.814467212
1790.92999696
1791.43259443
614.396191761
1792.89911865
1793.14106485
614.433752211
615.817817202
1791.92448841
1794.01049634
615.02542065
1793.15282647
1793.78024507
614.385719926
614.927655155
1792.67636734
1794.29721802
614.845539674
1793.9175431
1795.86456054
615.954966242
615.378987235
1794.92522323
1795.01278337
615.255572448
1796.66582891
1794.56434382
617.530669759
616.827832014
1796.16587599
1795.28418884
617.839925886
1798.16228913
1799.36033923
618.72685846
620.221934833
1797.76372156
1799.73976191
619.006579513
1797.33215452
1796.90044272
616.809871139
617.55566691