/*--------------------------------*- C++ -*----------------------------------*\
| =========                 |                                                 |
| \\      /  F ield         | OpenFOAM: The Open Source CFD Toolbox           |
|  \\    /   O peration     | Version:  v1906                                 |
|   \\  /    A nd           | Web:      www.OpenFOAM.com                      |
|    \\/     M anipulation  |                                                 |
\*---------------------------------------------------------------------------*/
FoamFile
{
    version     2.0;
    format      ascii;
    class       surfaceScalarField;
    location    "6.5";
    object      alphaPhi0.water;
}
// * * * * * * * * * * * * * * * * * * * * * * * * * * * * * * * * * * * * * //

dimensions      [0 3 -1 0 0 0 0];
oriented        oriented;


internalField   nonuniform List<scalar> 
92311
(
0.203368247332
-0.000397461485317
-0.000566365632369
-0.202914667061
0.000510269406443
-0.000339563490293
0.203649263751
-8.61431069724e-05
0.000144558744619
0.203454425296
-0.00093487284979
-0.000520438137582
-0.202876679532
0.000480165623515
-0.000757737285171
0.203816308914
-0.000105532067123
0.000161765027242
0.20377938096
-0.000410975874429
-0.000500188426421
-0.000319754009153
-0.202803546542
0.000327989825521
-0.000451625540461
-0.000556173864745
-0.000430324553186
-0.000284942798478
-0.000280071592225
0.204341168238
-3.26689783595e-05
0.000182041716384
-0.000473574757733
0.0508777488189
-0.000127041530302
-0.000157732850965
-0.000130634758694
-0.000149805631178
-4.84815177182e-05
-0.0506585496033
-1.64064358413e-05
-0.0510439847841
0.0511741746446
-0.000137223471965
-0.000134526067928
-0.000145787268747
-0.000125804322605
2.205287004e-05
-3.91501129251e-05
1.41939613895e-05
0.000224574356637
1.76817713869e-05
1.54281606097e-05
2.02306752866e-05
-0.000355279250795
-0.000420171544438
6.43534313981e-06
0.000343163356233
-0.000567220177672
0.00020360014671
8.32997348777e-06
0.000350980270139
7.5755043605e-06
8.48732258584e-06
1.17625237538e-05
1.29439435298e-05
-0.000246816733522
8.51929791553e-25
-2.85760478082e-06
-3.05944061589e-06
-3.46394919924e-06
-5.32288531132e-07
-9.1675675195e-07
-1.89423101567e-07
-3.58555735341e-06
-0.00015290840639
-0.000158752988746
-0.000171097439351
-0.000144777544072
1.69327782504e-05
-5.58207913109e-05
0.000137157721153
0.0112117089631
3.61469849328e-05
-4.60335590107e-05
-0.0112757968441
0.0109703314458
-2.11876461315e-05
0.000170698967291
-0.011049780678
2.3843595365e-05
-2.81261541633e-05
-4.18733395648e-05
-7.46221076707e-05
0.0512009851391
-6.46389793514e-05
-0.000103111929042
-9.21009713025e-05
6.46740480371e-05
-6.87513651602e-05
0.0512124281125
-7.18903656656e-05
-0.000106957534356
-0.00011839668636
-0.0511907343125
2.23882167207e-05
-1.9145014541e-05
0.000156710565245
0.0109083422429
3.03526929116e-05
-3.30203746893e-05
-8.72960258641e-06
0.0128123088774
1.79446913496e-05
-7.33576955838e-05
-0.0128212643116
0.0128124245033
1.26932052585e-05
-7.40819508289e-05
-0.0128268703211
-0.00033036870576
0.203342649641
-0.0012849095883
0.00107792114323
-0.202805267581
0.203622193147
-0.000145670053167
0.000389946049142
-0.000217454488122
-5.0736715326e-05
0.203436782882
0.000677562981549
-0.000440776527077
-0.000594847371493
0.203279849369
-0.00129439843938
0.00103289019683
-0.202753743787
0.203730557674
-0.000200196196796
0.00031751441953
-0.000177199409225
-1.86054689121e-05
0.20345450044
0.00060953515046
-0.000365226286371
-0.000223781521558
-0.000307061124053
-0.000296164197603
-0.0011599011198
0.203206230203
0.000886180881052
-0.202482756925
-0.000217554660241
-0.000100782842788
-2.62951671443e-06
-6.48978710446e-05
5.27602276775e-05
0.204015502923
0.00033077024039
-8.98177310086e-05
0.0506230621874
-7.62538431377e-05
-5.76001083269e-05
-6.74252201448e-05
-6.79756785935e-05
-0.000266467738984
-0.0505283687948
0.000217217254653
0.0512000690121
-2.03691693568e-05
-5.77874558773e-05
-4.79155939836e-05
-2.60248160984e-05
-1.87158502346e-05
7.10820786219e-05
0.000197453547818
6.15857598729e-06
-0.000648209667693
2.18697180819e-06
2.87356473798e-06
-6.88029860486e-06
-6.23302283695e-06
-0.00028702706613
-1.22064326138e-06
-6.27760540353e-07
-1.05858727402e-06
-1.17278501712e-07
1.4895461812e-06
-2.08020315686e-07
-1.15048583282e-07
-7.66108074089e-07
0
0
0
0
5.58831104853e-30
0
0
0.000150174044432
-9.25348262795e-05
-0.000103913049844
-8.69342840193e-05
-0.000108412759199
0.0507556383681
-0.000198018449032
-9.3499502347e-05
-0.000111456752123
-8.68278340709e-05
-0.000105390117174
0.0507097641547
0.000103181592446
-0.0505617857883
-4.37518262573e-06
6.04664232389e-05
0.011493983215
0.000124798329584
-0.000132996782188
-0.0115305480039
-1.00374699054e-05
0.000115096214695
-0.0113910921868
9.61700389064e-05
-0.000101529138152
0.0113240646965
-9.57353681137e-05
0.0126211809993
-3.11235155545e-05
2.42363957082e-05
-0.0126118860738
-2.13828971197e-05
-8.1271778177e-06
1.95939656604e-05
-4.64481216911e-07
1.81176453266e-05
0.0511063577612
8.33629838514e-05
0.0511954569982
-5.00740840776e-05
-3.34908149539e-06
-5.20955249785e-05
-1.50548489237e-05
5.23449223068e-05
1.56197843612e-05
4.48594583163e-05
5.86752291496e-06
3.05633077253e-05
0.0510771834102
5.28933569684e-05
-2.41492021993e-06
1.39428708135e-05
-5.55376165858e-05
0.012800091776
3.44341472278e-05
-2.696443819e-05
-0.0107983179026
1.57079060377e-05
0.0107825204143
-1.76714920599e-06
2.31974407812e-05
-5.86894218402e-05
0.0127968796311
-0.0127836464991
1.9445771511e-05
0.012765485285
-2.7789869205e-05
4.28828149216e-05
-5.17883492717e-05
1.88734532306e-05
2.45479010747e-05
2.23444528567e-05
-0.000245934895331
0.00026492531968
7.59718910098e-06
9.00022414377e-06
6.17738718407e-06
3.93138950487e-06
1.12008488947e-05
1.10349670323e-05
-0.000650356258205
0.000101055161514
0.000474570265541
-1.57611751503e-06
-4.44808833523e-06
3.77830030502e-06
9.21023831484e-08
2.71016049414e-06
-5.55085549707e-06
-2.09365831917e-06
8.48499117781e-06
1.77884276131e-05
2.1786893949e-05
2.02059912754e-05
-0.000181915871871
0.000196598731417
-2.38695995344e-06
-2.23214824155e-06
1.26494427957e-06
-2.01776922814e-05
0.0126648393689
1.25727323488e-07
-0.0126340230314
-0.0126552101463
-0.00017942198196
2.55078046018e-05
0.0126921623365
-3.99824748463e-05
3.07306434503e-05
0.000165594154577
0.0111269827783
-3.8978175903e-05
0.000146698755219
0.0111970232472
-0.0112708900222
2.74970405283e-05
-0.0126230518559
-3.57090656382e-05
0.0111052403267
2.59687860787e-05
0.0127004963372
6.39573575158e-06
0.0127314332018
-0.00017868140352
3.10661064315e-05
-4.35047636032e-05
-3.07508994166e-05
-0.0127342230431
0.0127605192551
1.74345334717e-05
2.5598143705e-05
0.000158866242133
-3.04330522741e-05
0.000191870576793
-0.0110290165239
0.010953228683
1.96041161593e-05
0.0127613005538
-3.86249225701e-05
2.19600471488e-05
1.22224690409e-05
-0.0127973989274
-0.000151214596396
2.38432605364e-05
0.0128101981395
-2.12670031145e-05
-2.83965455189e-05
0.0127940819915
1.82439752082e-05
3.62213022396e-05
0.000134177144617
0.0108679950085
-3.75822719045e-05
0.000176365981481
0.0108911355123
2.74941911981e-05
-3.24432172285e-05
0.0108484249463
3.40095667236e-05
0.0128081021925
1.92840577387e-05
-5.81052216835e-05
-0.0128194728702
0.0128095959227
2.27198269035e-05
4.83902546732e-05
-0.0108371034132
0.0108294569933
-4.36088970253e-05
-0.0108156574909
4.97817026252e-05
0.0108077803165
-0.000121008482299
2.03754815586e-05
-1.19075937395e-05
4.38575729023e-05
0.000105345606439
-4.26099744206e-05
4.48772169145e-05
2.35346967426e-05
-6.46945686039e-05
-0.0128367661055
0.0128177932965
2.58748216195e-05
3.68794271261e-05
-0.0108025925083
0.0107958832622
-0.0107658591793
0.0107541911608
2.27133651159e-05
5.98359485984e-06
-0.000129469009609
-0.0128202964185
0.000129864311846
-3.0141376937e-05
-0.0107926791287
1.81766843792e-05
-0.0128360596753
1.85862908873e-05
-0.0108278752399
3.98217002908e-06
-0.000380305927561
7.26772792953e-06
1.01626187112e-05
9.45064896592e-06
7.14369579364e-06
0.000416374865885
-0.000530804367911
0.000375911617739
-3.39113135338e-06
3.74903102594e-06
2.20121042281e-06
-3.43079456065e-06
0.000505412307621
2.63811647251e-06
6.45523165296e-06
5.15549746715e-06
6.41314284148e-06
-0.000298889114496
0.000367479902233
-0.000643598650733
3.35078710117e-06
8.28804271878e-06
9.57032140757e-06
7.73461149047e-06
0.000311225104154
-0.000287036502536
2.14780513741e-06
-1.7534787798e-06
-1.97648020668e-06
2.07877469248e-06
-3.07154683234e-06
1.09919850176e-06
4.68754291226e-06
-0.000642816475594
-9.22563094277e-07
-1.19227429421e-05
-3.19880069838e-05
-1.79513172725e-05
5.72762535324e-05
4.95897202818e-08
-1.03079102342e-06
2.12852249975e-06
-1.64431812209e-06
1.31263680704e-06
-1.39758428635e-06
-0.000112993958695
-6.18356873099e-05
-7.3682988407e-05
-4.25961048309e-05
-3.3034308901e-05
-0.000419600662836
-1.68604134532e-05
1.46434183331e-07
4.45092881251e-07
1.66387724277e-06
-4.36866515225e-08
-2.66799833413e-05
-3.81708051299e-05
-2.97891815552e-05
-0.00052956599103
-0.000229077312033
6.91619077775e-07
1.08131412543e-06
-5.12439862584e-05
-0.0126138488149
-8.93789187124e-05
0.0126313398536
4.71391582595e-05
0.0126190065791
5.80438348844e-05
-6.2310314075e-05
-0.0126116765757
8.07544512878e-05
0.00011950687043
0.0114440905449
-0.000124745752105
7.28932863106e-05
0.0114722339148
-0.011502103294
0.000110681040044
0.0126373766751
-5.61017338178e-05
-0.0126064896795
5.58171783209e-05
0.0114274726946
0.000105204142636
-4.47741495365e-05
0.0126432667658
-9.77183828686e-05
3.82625737179e-05
-0.0126501031915
3.89039668329e-05
-4.53332555494e-05
0.012667766372
9.36303747977e-05
0.000106270925496
-0.000111059885026
0.000115988150897
-0.0113719580622
8.32759206638e-05
0.0113005363396
-5.07193732637e-05
3.00978789037e-05
0.0126598571639
9.34736872462e-05
0.0113555702393
-8.1971246871e-05
6.7377175078e-05
-0.0114093902861
0.000126378158432
-7.28133348787e-05
0.0112850830761
6.05906818066e-05
-2.08070165005e-05
0.0126415396098
1.57969859937e-05
0.0126348584659
-9.12170133665e-05
-0.0126232682719
0.000114780315092
-0.0113672333313
0.0112926854398
0.0126538442629
-0.0114200333232
-4.23619614623e-05
0.0127967793496
2.2636343886e-05
4.4589719461e-05
0.0108186623302
-3.5420582064e-05
0.0107948394345
4.99036409285e-05
1.05646817115e-05
-1.71192288674e-05
0.0127829628675
-6.71687245218e-07
1.093874013e-05
3.7737505447e-05
0.0108204288383
-2.76527033751e-05
0.012781275042
1.97423224309e-05
0.010792299458
4.30446199787e-05
7.59116165725e-06
0.0127712595523
-4.04838808527e-06
1.47696512231e-06
-0.0127712695852
-7.89606216482e-06
0.0127544265836
1.84839922001e-05
-5.53303005568e-07
2.75450168115e-05
-1.58538989217e-05
-2.95981264059e-05
-0.0107665192616
2.37430046486e-05
0.0107556785405
1.79269025182e-05
5.34067804702e-07
0.0127524633747
3.19537837415e-05
-0.0127998711777
-4.32266173014e-06
-2.39725406983e-05
4.20669627118e-05
-4.56659125522e-05
3.59552968872e-05
3.70857677928e-05
0.0107879133539
0.0107407307109
2.68754356736e-05
-3.53945224568e-05
0.010736960889
2.53041777401e-05
-1.99971958546e-05
0.0127785610787
0.0107778937604
0.0107111222962
-2.86279780075e-05
1.61771176153e-05
-5.88832830246e-05
-2.24814033148e-05
0.0107024129032
1.13576647295e-05
-2.51906854737e-05
0.0127405911333
3.65857318147e-05
0.0127661838531
-6.81506909948e-06
-2.6234822007e-05
-0.0107502623884
0.0107381066343
0.0127468108834
-5.74734494496e-07
5.58474843652e-05
6.59159668289e-05
0.000654586859914
0.203522869453
-2.62507241222e-06
-0.000299149314001
-3.52723629581e-05
2.43966235392e-05
1.34088742681e-05
2.36975967259e-05
1.2021352018e-05
9.71407313556e-05
0.0509704166126
-2.81394846084e-05
4.86016869274e-05
-6.36729977107e-07
-3.69598234046e-05
-3.42634017307e-05
-4.20377359253e-05
-0.000187989056784
-0.000344947340633
0
0
0
0
3.16932183184e-29
0
-4.96420250824e-29
-0.000127422685784
-0.000110732761417
-0.000105574957996
-0.000131756380696
0.000324811137613
-9.53719872671e-05
0.0509072867103
-1.31433718136e-05
0.000131318167588
-5.75968225634e-05
0.0112226060477
0.0509176761929
3.60470450915e-05
3.61702246814e-05
2.38102425732e-05
4.72325922087e-05
3.68340383126e-05
0.0508009691145
3.04730529533e-05
3.0939117365e-05
2.47654800901e-05
3.65918309352e-05
7.18059443489e-05
-1.19137332666e-05
-2.63219524628e-05
0.0107692047692
5.18666284759e-06
9.04001730644e-06
6.70171753093e-05
-5.546811977e-05
-1.03136145647e-05
0.0106961101315
2.20409610648e-06
0.0107283016298
3.18776957616e-05
-3.97438481661e-05
1.59764111019e-05
-0.0107176164998
-2.34007316956e-05
0.050703743587
-2.27963075126e-05
1.1376740626e-05
4.5857903217e-06
-1.66144618923e-05
5.70238103817e-05
0.000113919890926
-5.02428243879e-05
-3.97089281362e-05
-6.10374642854e-05
-6.31628277491e-05
-3.63383967391e-05
0.000123735161763
0.000155881408364
0.0507137935311
-8.92927701307e-05
1.76997218636e-05
-2.46889039519e-05
2.33677527158e-05
0.0107425914158
-3.00427735218e-05
-1.23631091785e-05
8.80755381651e-05
4.67944151581e-05
-0.0107243533078
0.0106962805644
-4.82536732061e-05
1.13004090988e-05
1.59980574635e-05
1.42076832661e-05
-0.000328875973033
0.000238881778213
4.71981235151e-06
-0.000176738559227
-1.14871056824e-06
-4.43709659402e-05
-6.84668401842e-05
-5.0464723737e-05
-8.01850833626e-05
-5.65829364435e-07
1.71362106356e-05
-2.38931723473e-05
-3.84146006613e-05
-2.9407228123e-05
-1.22588103132e-05
-8.05220784196e-05
-5.88752126601e-08
1.59835797113e-06
8.86015747002e-07
6.0898242274e-07
1.11461732875e-06
1.84462143579e-07
4.043908028e-07
6.71463866817e-07
7.96883452913e-07
-5.84533267923e-06
1.42031639651e-06
3.42887540373e-06
-2.32769796479e-05
1.91797711981e-06
-5.72041560764e-06
1.17163668654e-05
9.00119652233e-06
8.88336943084e-06
-8.32889435281e-05
4.26856171891e-06
-0.000113640128806
8.35481676825e-05
-0.0126795271848
-0.000144649449188
3.2125643752e-06
-1.54858195444e-05
0.0127094741877
-8.63676961201e-06
0.0126714475084
0.000118731065298
0.0112250371683
-6.97011978048e-05
-4.75521615472e-05
0.00015435000402
0.0111384613339
-2.07908443349e-05
-5.86074683824e-05
0.0111420577294
0.0127042756782
1.26149693488e-05
-0.0127282553218
4.73236221211e-05
-7.51394557457e-06
0.0127005132082
0.0127326871248
-9.1885475454e-06
1.89295340111e-05
-4.14832287228e-05
-3.60555531791e-06
1.54664408701e-05
0.0107574388457
-3.0141602333e-05
0.0107459566272
1.35810979255e-05
1.99560727473e-05
0.0127077819962
-2.20387477249e-06
5.18366511886e-06
0.0107355558125
-0.0127199633661
4.50696027245e-05
1.22495639137e-05
0.0126914516755
-2.05876989318e-05
0.0127108281977
3.1494259269e-05
-2.85772486425e-05
0.0107248413558
-1.3619354961e-06
-6.55755109832e-05
0.0107001030846
-7.16228377996e-06
0.0107166598803
0.0126833291952
2.20496651306e-05
0.0126653460609
4.04328166634e-05
1.81776772132e-06
1.42624787107e-05
2.49679381991e-06
-0.0126574301079
0.0126393762451
6.62097549663e-06
-2.77369212866e-05
-0.0107268246579
0.0107354385513
9.44835538886e-06
9.59172523044e-06
-5.25817322641e-05
-1.78150735306e-05
0.0126468767614
1.78247881139e-05
3.59798367772e-06
1.18374833913e-05
-0.0126232517375
-3.38409752641e-05
-1.42797847075e-05
0.0126168027239
3.18642251916e-05
9.85053345118e-06
0.012616662156
-7.06864842323e-07
-1.15256866219e-05
0.0107524342921
1.81358942611e-05
3.08274663827e-05
2.04016260748e-05
0.0107409947616
-3.52838639205e-05
2.64084475844e-05
0.0107498575754
2.51929786755e-05
0.0126106152549
-4.25634180317e-06
0.0126193542754
-5.82176358128e-05
-1.99301474855e-05
3.63880256712e-05
2.35190733734e-05
-0.012614206789
0.0126294793201
-1.08006911751e-05
9.29363736083e-05
-0.0107350530267
3.76149950476e-05
0.0107011350014
3.97171882153e-05
5.08734067994e-05
-4.06421888776e-05
4.02155033288e-05
0.012633228989
3.29506171847e-05
-8.37269414715e-06
-0.00068153970991
-0.0494888881404
0.0493920502635
0.000875085914674
5.86058624829e-06
-1.71026223408e-05
-4.82242794689e-06
-3.42089428962e-06
-7.69848549182e-05
-0.000884161310669
0.0499026102699
6.41782346191e-05
4.84787669298e-05
6.02586335961e-05
5.49789907894e-05
-0.000104419623232
-0.0498571390071
0.000715218513741
-0.00122805368217
-0.0499770403214
0.0500711465418
0.000955944819213
7.94227237421e-05
6.59606184897e-05
6.86560275869e-05
7.73816103554e-05
-0.000113397647741
-0.000700513811501
5.56129295003e-05
6.4685855936e-05
6.71593344217e-05
5.54197552684e-05
-7.86411211636e-05
0.0502136839905
0.000488010699533
-0.0501654017462
3.56523420747e-07
0.000244950349806
-0.000605577229318
0.000631911394815
-0.000269621719375
3.90413054642e-07
2.8236574814e-07
-3.57757644085e-05
-2.75456244661e-05
-5.21416043595e-06
-0.000672272050987
0.00069865656935
-0.000281440238392
1.26168993995e-06
-2.21922386097e-06
-2.7538178835e-05
-2.29101101481e-05
0.000201396891707
-6.43015925319e-05
0.000147214130829
0.000651812374422
-1.58636772489e-06
-8.13392817833e-05
-6.13070615372e-05
-7.06502627132e-05
-0.000513509013767
2.60284422868e-05
-7.65075552554e-05
0.000176848722861
-0.000816616790748
0.000943908681498
3.28215353398e-05
-1.23130293827e-06
-8.06412183211e-05
-8.87435782656e-05
-8.7291089753e-05
-6.72833451551e-05
-0.000218851928097
-6.55922270275e-05
-5.57658018663e-05
-5.10662132459e-05
0.000845679591283
0.000358821862507
-1.27215045928e-06
-0.000730417818942
1.49259216202e-07
1.64983953087e-09
-2.09367426317e-07
-9.3873042655e-08
-1.36770472281e-07
-4.94602575679e-08
1.07525334422e-08
-8.60187069748e-08
-2.6387654433e-07
-4.50452193654e-07
-1.26011809501e-06
-6.92263548758e-07
-1.38767821497e-06
3.68841213952e-07
5.66722636877e-08
0
4.3097754647e-28
0
0
7.30416187869e-09
2.00798412281e-08
-2.57341635759e-08
-5.76430941319e-08
-2.13863962154e-07
-4.93268527916e-07
1.69930465433e-07
1.14002141174e-07
3.08243455797e-07
0
0
1.70766265876e-08
1.82616092346e-08
-3.53382358222e-08
2.53005981156e-27
0
9.09969420309e-08
7.21016622602e-08
9.09051196175e-08
8.6633054692e-08
5.35685662771e-07
-1.34191380407e-07
0.000225543031636
-5.31648766615e-05
-3.70958228907e-05
-4.75971547924e-05
-4.40651013385e-05
0.0491386180915
0.0001217475242
3.68405557525e-05
-0.0493406473776
0.0491922719505
0.000493709768424
-5.47174602829e-05
-3.60226798002e-05
-4.48125737699e-05
-5.28613725249e-05
0.000124038611725
-0.0493956791912
-3.33642075866e-06
5.42038699899e-05
-0.0115643662181
-2.26843449402e-06
0.0115348045973
2.0632843969e-05
0.0114888891935
5.86714011599e-05
-2.62593450521e-06
5.02427545829e-05
-5.06900987154e-05
-0.0115132138953
3.56190417288e-06
-1.8652341482e-05
-2.26098668341e-05
7.50700941183e-06
-0.000337067052536
0.0122963704855
0.0122521675565
0.012187067027
0.0121964763581
-5.38460118244e-05
6.35096350186e-05
-1.24789160839e-06
3.37753055545e-05
-5.27576577141e-05
0.011472105447
0.000665078202702
-2.93922702992e-05
-2.17448710589e-05
-3.6839073545e-05
-1.66461770592e-05
-8.01731534476e-06
-0.0495475449271
0.0496566564998
-1.2721666998e-05
1.76328023299e-05
3.42958481523e-07
1.16139091058e-05
-2.9750240118e-05
-0.0496769837724
0.000698174960983
0.0115169129974
-2.43093173409e-07
3.91576568832e-05
-0.0115387751955
4.89399201544e-05
0.0115199492692
4.71832693144e-05
-2.36016608681e-05
-1.79716514792e-05
-0.0115485585376
6.74608112512e-06
0.00110838167881
2.3694340495e-05
2.59660883077e-05
1.43224577357e-05
3.44216877767e-05
0.049243073799
-0.000233409511159
-0.000195408003193
-0.000225605460476
-0.00018405059936
-7.10802016949e-05
-4.5637414275e-05
-5.85734263182e-05
-4.40049607274e-05
0.0496301738414
1.78528390243e-05
3.4278303755e-05
1.5203896496e-05
4.51124018438e-05
-9.51332199953e-05
0.0497170190899
0.00104147813728
2.88260816803e-05
5.82070754898e-05
3.73209761401e-05
5.36276946432e-05
-0.000197989628082
3.36523850341e-05
0.0114929303661
6.16867100392e-05
0.011466917577
1.16261486784e-05
2.62901012152e-06
-0.0114720325939
0.000112519311007
-0.000115269594717
1.77418373462e-05
7.19451796594e-05
-4.58369424044e-05
-3.34085846417e-05
0.0114913058037
0.0114403420305
6.09182467711e-05
9.14370258491e-05
-7.60728098363e-05
-8.55281620086e-05
-0.011443376776
0.0498598007086
4.35031142356e-05
5.4523563041e-05
3.56153324363e-05
6.17075727243e-05
-0.00133882060291
-0.000227462741774
0.00142544383279
3.87095459032e-05
6.34248324498e-05
5.74018322282e-05
4.56214715741e-05
0.0503727000434
-0.000363341297269
-0.00178028491981
3.34940277495e-06
0.0114727699056
0.000133384312945
-0.000142336508631
-1.35469679393e-06
-1.48749107758e-05
-0.0115108077219
0.000182413325554
0.0115375544517
-0.00019302284867
7.21536632191e-05
8.55858483297e-05
-7.2541042521e-05
-9.76325443325e-05
0.011446626476
0.000119866285056
5.96276229201e-05
-5.72967369063e-05
-0.00014454377259
-0.0114835351773
0.0114998374687
0.000831214055399
7.48796716766e-05
7.26366681506e-05
6.8499558543e-05
8.23130862102e-05
-0.000162559909429
0.0501005745831
7.08247947781e-05
7.67558300584e-05
8.14532829191e-05
6.5613597251e-05
-0.000145139433572
-0.050051746062
0.000632862768681
-7.36764704285e-05
0.0114989914132
3.49292592277e-05
-0.0115289070501
0.0114443403228
8.39662937078e-05
-0.00010435885757
-0.0114476896014
7.09388682436e-05
0.0114689353116
7.64728093248e-05
-0.000109283836164
-0.000106808914321
-0.011481199842
0.000129826166224
0.00105920984966
7.30566982383e-05
5.94652214093e-05
6.06700139969e-05
7.20733272496e-05
0.0503248153302
-0.000152676715565
0.050169244143
8.187058588e-05
7.79917704572e-05
8.01749864785e-05
8.02090075803e-05
-0.000133548634836
7.72243909959e-05
7.37077467137e-05
7.63677352944e-05
7.59357753205e-05
0.0503070622803
0.000759601838515
-0.000141466015995
-0.000100712067727
0.0114488947666
8.12011318925e-05
6.00118535181e-05
-7.98157863457e-05
-0.0114722433112
0.000113745930015
0.0114924315669
0.000136886560884
7.69141814148e-05
-0.000114980359967
-0.000114847693959
0.0114693420881
0.000157169691527
5.62915769149e-05
-9.9728378688e-05
-0.000138604415096
-0.011486025341
0.0115022553264
-0.000101299197916
0.0114760368239
0.000156963147673
-0.0114761453953
-9.21228948017e-05
-0.0114926129539
0.0115077204512
5.2841918736e-05
0.000173318716212
-9.23832756453e-05
3.63622271316e-06
5.8383425099e-06
6.23974822526e-06
0.00068069584128
-5.17464742074e-05
-0.000759910705325
5.29277970415e-06
0.000679186255627
-0.000203926373019
4.88741854444e-06
4.03655209287e-06
6.34776028294e-06
-0.000744679267119
4.45947020178e-06
3.92524520529e-06
2.03259871743e-06
2.85851802402e-07
3.13430898645e-07
0.000114313759293
0.0006570334559
2.4369544114e-06
-4.37691396018e-07
-5.2637780644e-06
1.31401975442e-07
-1.55229070116e-06
-2.47082342199e-07
2.97983374091e-06
-2.87999869176e-06
-1.31813131501e-07
2.80865581855e-06
-6.86053550127e-07
-1.92851214796e-06
3.5246081663e-06
-5.30927104558e-07
-2.87637235163e-06
2.38585318793e-06
-8.20036744744e-08
-5.07586689104e-07
-2.87006619301e-07
-1.57195489527e-07
3.9674438337e-06
-1.68110320778e-06
-8.55988853871e-07
3.76652421269e-06
-4.94360087144e-07
-2.61279137899e-06
-6.6137352079e-07
4.9325531209e-06
-2.47474045101e-06
-0.000232637029087
7.01921232195e-07
-2.40368707404e-05
-6.69944475205e-06
1.92243999201e-06
-0.00063038365326
0.000517147848025
-2.15503118952e-05
-4.6902612128e-05
-1.2648193377e-05
-0.000491639666126
-7.66867949127e-07
-0.000154339157206
-0.000291867317519
7.12664245697e-07
-8.85787376941e-06
-3.98665214325e-05
-3.67820572272e-05
0.00022911861041
0.000626127919379
-1.47343120301e-06
-3.22402470585e-05
-8.69841205524e-05
-3.6064657911e-05
-1.14932570404e-06
0.000749983085825
-0.000167405707741
-4.65718604674e-05
-9.61224248506e-05
-3.70319621438e-05
1.98150820825e-06
-3.84181383127e-07
-1.6361448172e-06
-2.48186369733e-07
2.3854794529e-06
1.22911064454e-06
-1.76313197605e-07
-1.39652070641e-06
1.3578688672e-06
-1.00485353591e-07
-0.000256159048334
1.76398086756e-06
8.44326628553e-07
3.37503243507e-07
1.98110961981e-07
0.00067734526635
0.000185134914387
0.000850110908253
-1.19166109522e-06
-4.77989465019e-05
-8.60707793193e-05
-4.57788188265e-05
-1.35806728688e-06
-0.00015872849073
-2.00668593762e-05
-6.05948005458e-05
-2.20509927144e-05
0.000880065942624
2.91261863369e-06
-2.00583454002e-07
-1.80797509197e-07
4.44348216165e-06
1.50025990078e-06
-4.74044545989e-08
2.33367953798e-08
1.78541303124e-06
4.05414186451e-05
-1.16517419575e-06
-8.41558498295e-05
-9.17731895482e-05
-9.07133659481e-05
-1.01991105962e-06
0.000796490342868
-8.56454456705e-05
-6.15131936771e-05
-7.60153316907e-05
-0.00061809227928
0.000198673009512
9.25020533686e-07
-1.08454257805e-06
-8.79720203059e-08
-5.17899272484e-08
9.42275293577e-07
9.22147821357e-07
-9.38965100287e-07
-2.51629381152e-08
4.157439418e-05
-1.33687384663e-06
-6.8179952383e-05
-6.51547586768e-05
-7.56043906747e-05
0.00101788000041
0.000942842327479
-1.14297225825e-06
-8.11623278727e-05
-7.38627304236e-05
-7.99274853292e-05
-1.18726484153e-06
-6.73378265819e-05
-6.5940868853e-05
-6.91891808335e-05
0.00103321443945
0.000230652366032
1.03433102344e-06
-8.22448274749e-09
2.06029729253e-08
1.21421043628e-06
1.03580242594e-06
-1.9237893799e-08
1.22038665917e-06
-4.62416919084e-08
0.0124010316763
-8.47295455693e-05
-1.01852271261e-05
4.95840465883e-05
-0.0124080699762
2.29511337963e-05
-0.0123885314916
0.0123655869155
1.76232713282e-05
-1.02400433053e-05
6.61974049942e-05
2.16046258468e-05
-0.0115943830602
6.8826555377e-05
-0.0115371603786
2.70212343075e-05
0.0115044442722
6.75028501395e-05
0.0123782959598
1.32693454639e-05
-0.0115728189034
2.44678303108e-05
-0.0124002611619
0.0124116446268
9.39919183402e-05
-8.97502805103e-05
-0.0124200978577
-0.000109006526454
-0.012420647867
0.0124034783057
0.00014090789876
6.51738621816e-05
-0.0115184440616
0.0114871783643
7.65876532114e-05
-3.41131135696e-05
4.20791685544e-05
-0.0115578647757
0.0123912556197
0.00012987136284
-0.0124320658213
-0.0115574534735
-0.0123645951556
0.000139533377217
-9.88839392493e-06
-9.40948230073e-05
0.012332928805
-0.000119507150092
0.0123822946059
0.000156187630548
3.78573363283e-05
0.0114620222735
-3.60153852614e-05
6.03763785563e-06
-6.30703328783e-05
7.94148418452e-05
0.0114652944641
-7.71923482478e-05
0.000177943405601
0.0123577120471
-4.55251794578e-05
0.0114569916825
-0.000159752377352
0.0124553465838
-4.00389965851e-05
0.000176298636873
-0.0124610555579
-0.0124383592541
0.00017327580217
0.0124235631189
5.66932777874e-05
2.94988770255e-05
-0.0115772614056
2.05003535462e-05
-0.0115409664122
2.69041855793e-05
0.0115102211616
-0.0124480049807
0.000187645471785
0.0124449824261
1.3857552702e-05
-0.0115768435107
0.0124747623769
0.000187627753018
-1.99649877402e-05
-0.0124789486968
-0.000202723004091
-0.012493639059
0.0124907761424
0.000199575400096
7.47129110477e-06
-0.0115561283627
0.0115237661189
-1.67035074147e-05
-8.74977602578e-06
-0.0115933566647
2.91043038728e-06
0.0124673607428
-0.0124948301401
0.000183671639927
-0.0115935112634
-0.000214427986679
-0.0124310432344
-2.51513055472e-06
0.0124179242406
0.00023593827932
0.0124047569753
0.000191637968048
2.26379509378e-05
7.70304225576e-05
0.011480596426
7.40102646207e-06
0.0114795998489
4.19164350866e-05
0.0123861506932
0.000209539501304
0.0114663702079
5.88503683308e-05
-0.000241617038298
0.0124110030037
7.43535940337e-06
0.000264948337243
-0.0123740465317
0.000274478411288
0.012363385099
-0.000234951507495
1.15995606131e-05
9.52447607745e-05
-9.86786035411e-05
-2.00993057756e-05
-0.0114592761435
9.763146581e-05
0.0114584412923
-0.000203383351866
0.000294880811107
0.0124053206008
7.69677456741e-05
-0.012459887776
0.000252894643771
9.12314907508e-06
0.0124517189604
-0.00022848011575
0.0124867537274
0.000221033996203
-3.62295021914e-06
0.0114891724356
-6.47985088613e-05
-4.65543904415e-05
0.0114594817484
2.95986167021e-05
0.0124791849285
0.000240707968755
0.0114654944043
0.012445437132
0.000278604540095
2.15879286224e-05
-0.000302104202236
-0.0124727772948
0.0124718871557
0.000284901297787
-3.3884085896e-05
-0.0114575137052
0.0114540846988
-7.47097786668e-05
-6.56993098917e-05
4.34692439123e-05
0.0124416286256
0.000263718683233
-0.000342636291025
-0.0124073144944
2.31600026675e-05
0.0124174447107
0.00036088154276
-5.11840136709e-05
0.0123614274382
0.000307521783519
-3.09658122781e-05
-0.000271001226957
-6.88545853133e-06
0.000152559303716
0.011493705609
-0.00016245547812
-1.57657640721e-05
0.0114640396118
0.00011747891026
0.0123779873086
-5.15909599113e-05
-0.000314253701438
0.000326990907967
-3.68344123822e-05
0.0114798237331
0.000139933481235
-0.000373789467987
1.16129927997e-05
0.0124707803803
0.00039049727106
-8.11729168621e-05
-0.0124428324562
0.000398746346155
0.0125261136447
-0.000387320374031
-0.000109305162781
-3.30041694146e-06
0.000169753445936
-0.000180775168129
-0.0115044192424
-1.95206035122e-05
0.000175111886886
0.0115326116958
-0.00035347298645
-8.81749988981e-05
0.000158861155072
0.000413372703167
0.0125379285826
-0.000100860866812
-0.0124442515433
0.000355994851268
3.6668229849e-05
0.0124560229785
-0.000327893575567
0.012473466339
0.00030822377667
-3.19894710321e-05
0.011455149877
-7.63318889684e-05
-0.000116431824752
0.0114613983213
8.91240060999e-05
0.0124835960836
0.000331306611123
0.0114698596013
0.000379342925536
1.50706649769e-05
0.0124912234048
-0.0125087124977
-0.0003937964769
0.000363496717569
0.0125457549299
-0.011494646464
-1.24772875849e-05
0.0115157923079
-6.03341821766e-05
-0.000130550398437
0.000104747792629
0.000351716133492
0.0125445706672
-0.00021228096266
-0.0125261703494
9.71396590777e-05
0.0125224517361
0.000182651747716
0.0125113072974
0.000198946937658
-0.0125145989876
-9.55787865772e-05
4.69783848075e-05
0.0114638548513
-8.39805338094e-05
0.0114977533954
-0.0115241159438
6.15402556716e-05
0.0125040997767
-0.0125287505512
0.000172192548704
0.0114793613631
7.04727882378e-05
-0.000233804711297
0.012518772896
0.000112278115577
0.000199808766649
-0.0124990027957
0.000252973728248
0.0124987928114
-0.00010308624232
5.79345940457e-05
-0.000120610679261
-0.0114583570926
8.68076022161e-05
0.0114509566228
0.000215488372239
0.0125176762935
7.59059983451e-05
0.0125359320482
0.000169251713766
0.000103602453797
-0.0125387643887
-0.00018238450517
-0.0125473869535
0.012544289488
0.000152627468682