/*--------------------------------*- C++ -*----------------------------------*\
| =========                 |                                                 |
| \\      /  F ield         | OpenFOAM: The Open Source CFD Toolbox           |
|  \\    /   O peration     | Version:  v1906                                 |
|   \\  /    A nd           | Web:      www.OpenFOAM.com                      |
|    \\/     M anipulation  |                                                 |
\*---------------------------------------------------------------------------*/
FoamFile
{
    version     2.0;
    format      ascii;
    class       surfaceScalarField;
    location    "5.85";
    object      alphaPhi0.water;
}
// * * * * * * * * * * * * * * * * * * * * * * * * * * * * * * * * * * * * * //

dimensions      [0 3 -1 0 0 0 0];
oriented        oriented;


internalField   nonuniform List<scalar> 
92311
(
0.202936678334
-0.000311713770453
-0.000319832103271
-0.202573727062
0.000268337276961
-0.000366531454322
0.203193943183
0.000265734658777
-0.000156417358132
0.202902600407
-0.00070480244584
-0.00030225279243
-0.202471931162
0.00026446656156
-0.000875908866608
0.203342079313
0.000257203100936
-0.000187309260107
0.202849309183
-0.000306824195786
-0.000392376026705
-0.000140263839404
-0.202200930731
0.000165779183077
-0.000295336713289
-0.000384220470601
-0.000409845977403
-0.000458008295871
-0.000482220365254
0.203704698259
0.00029304659967
-0.000254701300966
-0.000419606163417
0.0505335931309
-8.82839384368e-05
-0.000102541185258
-8.79775473172e-05
-0.000104869350107
-7.2490134194e-05
-0.0504648102584
8.05957444317e-05
-0.0506881343774
0.0509155631307
-0.000171183214353
-0.000145051561921
-0.000148523413308
-0.000161913280513
6.78936459124e-05
-7.83354814831e-05
5.91915212261e-06
0.000475200537058
8.76815743595e-06
4.65073698004e-06
7.66335200564e-06
-0.000223782839338
-0.00066999178907
5.83286044725e-06
0.000200974846706
-0.000270082928607
0.000157195708322
4.42805142584e-06
5.61258633083e-05
1.80595999562e-05
1.91826981627e-05
1.70666931992e-05
1.78298990126e-05
-0.000125660205545
-3.51256299362e-08
-1.21320350886e-06
-1.25098581994e-06
-1.38804412599e-06
-3.99392266794e-08
-1.94675524842e-07
-1.82589597162e-09
-1.22660447065e-06
-0.000125807273489
-0.000150289054835
-0.000153908080158
-0.000127251838251
9.1915708535e-06
1.22413462971e-06
8.61305547508e-05
0.0115009973703
4.00802790812e-05
-3.9150347336e-05
-0.0115406218857
0.0113014311517
-1.47712492475e-05
0.000172775412529
-0.0113780335138
2.75342049253e-05
-2.94756066388e-05
-0.000148997554714
-0.000154980813316
0.0510765561707
-0.00014586594147
-0.000154247951534
-0.000145836558091
0.000131129868899
-0.000168159322027
0.0510472563888
-0.000178760565176
-0.000170540164623
-0.000176639045408
-0.0508595941471
-0.00012455821752
-1.56094910566e-05
0.000168724600517
0.0112361071152
1.85215232705e-05
-2.39197266556e-05
-5.55641926742e-05
0.0127921632745
4.47691641028e-05
-0.000171382760767
-0.0127634030275
0.0127925690063
-5.65786957117e-05
-0.000197478388428
-0.0127606596163
-0.000216602485628
0.203031441509
-0.00101475532907
0.000869771794492
-0.202669978418
0.203241997629
-0.000277840031129
0.000760786061891
-0.000530616551668
-8.20661081952e-05
0.203035815401
0.00104234021233
-0.000753792293687
-0.000342361353454
0.202947934665
-0.00105358718705
0.000849405850118
-0.202618061514
0.203420143089
-0.000547950665173
0.00071860162552
-0.00052637607677
-0.000119014978287
0.203142508261
0.00102125463638
-0.000706531279746
-0.000121849237536
-0.000156633408177
-0.000144275904115
-0.000838560600018
0.202668794087
0.000719249559274
-0.202359785853
-0.000109336457037
-0.000346453649136
-0.00019901791132
-0.000345376139536
-0.000157864719649
0.203977209747
0.000828665919857
-0.000600571113063
0.0505234146883
-3.92132571257e-05
-2.59085136789e-05
-3.25504831642e-05
-3.15041433902e-05
-0.000189044745278
-0.0505150962918
0.000188079262516
0.0511696696184
-0.000140101054301
-0.000120945686837
-0.000113287169231
-9.89106897483e-05
-9.33851059423e-05
0.00012706260918
0.000205268718682
3.30041749889e-06
-0.000384660970338
1.52690265746e-05
1.55125889227e-05
1.2262415312e-05
1.27496780827e-05
-0.000224627681874
-8.30594188561e-07
-4.79580076143e-07
-7.07207091136e-07
-4.29861313471e-09
3.98047885065e-07
-1.19792149097e-07
-3.54836931126e-08
-5.91221097783e-07
1.42270834052e-07
1.70826948281e-07
4.32013257098e-08
3.66465207686e-08
3.75040639822e-08
3.90710002212e-09
1.331127153e-07
0.000100380332411
-6.49134200892e-05
-6.6883748664e-05
-5.61620004286e-05
-7.48702372629e-05
0.0505938197239
-6.45280926296e-05
-5.58093426565e-05
-6.27878879518e-05
-5.48255315234e-05
-6.45206690488e-05
0.0505304989104
0.000127353106899
-0.0504637327253
-1.1153166052e-06
2.66953769759e-05
0.0116174863005
9.71350400352e-05
-0.00010635725781
-0.0116261051815
-5.43900222248e-06
8.81532642862e-05
-0.0115741891294
6.53397844637e-05
-7.36642379846e-05
0.0115336918495
-5.73557010942e-05
0.0125879574759
-3.44737478451e-05
4.13483620475e-05
-0.012592980443
-0.000158603447721
-6.63352535677e-05
-2.32137099012e-05
-6.04952976314e-05
-2.9777816175e-05
0.0511308475803
0.000178200644328
0.0511520548859
-0.000127678821463
-0.000108432770067
-0.000139330675703
-0.000101837323478
-0.000112996100311
-7.01449165298e-05
-1.87519839522e-05
-6.41829997471e-05
-2.05475615457e-05
0.0511220085005
-0.000112985218937
-5.26595344506e-05
4.27818294339e-05
-0.00013896647887
0.0128213228023
-8.70370874204e-07
-1.75279175373e-06
-0.0108906017011
-4.13329382823e-06
0.0108809109441
1.43071225407e-05
-5.12410512436e-05
-0.000159214775672
0.0128243142236
-0.0128254547943
-6.18724634468e-05
0.0128104901025
2.92974349909e-05
-2.19751273517e-05
0.000213218447239
1.21220171721e-05
1.44229209392e-05
1.03428050889e-05
-0.000133094350552
0.000171368907966
5.82622420028e-06
4.33233800742e-06
2.11882998473e-05
2.59336972391e-05
2.46781332478e-05
2.0118367167e-05
-0.000307451434982
0.000174878285793
0.000101965383846
-1.84105212438e-06
-2.54240120329e-06
6.98705636293e-07
2.25844281019e-06
1.65190985078e-07
-2.7772408505e-06
-6.12519682007e-07
5.4266201019e-06
1.7556596959e-05
1.59475223344e-05
1.87989472888e-05
-8.9026592403e-05
0.000140461568908
-3.56456741237e-07
-2.47542596881e-06
1.28528758411e-06
2.2752640819e-05
0.01258508254
-2.39496116266e-05
-0.0125858818127
-0.0125724477866
-0.000119635321533
-9.57727736041e-06
0.0125906515744
8.61755835259e-06
3.83075068432e-05
0.000123199499006
0.011438397663
-3.48644477845e-05
8.26513361005e-05
0.0115212703351
-0.0115589347067
3.84471749617e-05
-0.012575935907
2.09349510857e-05
0.011460313994
3.81383073109e-05
0.0126052113584
-1.12053969618e-05
0.012606268543
-0.000141991329879
7.39687916221e-06
-6.29191295653e-06
-2.03895675512e-05
-0.012622808562
0.0126517621505
1.49806367018e-05
3.08802505741e-05
0.000141545724519
-3.10134484058e-05
0.000182261999043
-0.0113965807134
0.0113086929549
2.19069537507e-05
0.0126393125298
-2.40504091076e-05
2.34705914454e-05
4.5360939258e-06
-0.0126825618784
-0.000198822590344
4.22874650149e-05
0.0127225529888
-5.28961596349e-05
-3.57407912441e-05
0.0126882236271
2.44070856558e-05
9.3852865597e-06
0.000182726556727
0.0111599595505
-1.71228757285e-05
0.000182932254959
0.0112376042236
6.7869434609e-06
-4.31188522555e-05
0.0111529031215
-1.41622746504e-06
0.0127243315133
2.86219991648e-05
-0.000160914139675
-0.0127625691971
0.012791485776
3.24043750152e-05
1.02587972201e-06
-0.0110886035109
0.0110198009922
-2.22453197713e-06
-0.0110769441319
-5.26737701153e-06
0.0110031257113
-0.0001820121411
4.40429256078e-05
-5.54266517494e-05
7.69434477218e-06
0.000167240278181
-1.06988592628e-05
-2.36752897244e-06
2.88753654727e-05
-0.000219982588219
-0.0127650550401
0.012800924481
-4.96383774555e-05
-2.29012857725e-05
-0.0110647949579
0.0109850404091
-0.0110623723192
0.0109740399525
-2.818006836e-05
-5.80855067242e-05
-0.000212217132904
-0.0127148075442
0.000239195174002
2.23433678305e-05
-0.0111648882655
-2.83078009782e-05
-0.0127086549261
-5.0406415355e-05
-0.0111518455548
4.34760166385e-06
-0.000323924258772
3.97673510928e-06
5.1943807742e-06
4.83187995165e-06
3.045933585e-06
0.000721580204788
-0.000820314626797
0.000268703569632
-1.50936998994e-06
2.53378794398e-06
6.83574872523e-07
-2.36605057834e-06
0.00075654625535
2.67513285255e-06
2.10036495167e-06
9.89372844814e-07
2.18819565209e-06
-0.000361637894607
0.000336152768113
-0.000814257182001
3.87052735679e-06
3.64388687961e-06
4.93164584087e-06
3.84248075725e-06
0.000644985736104
-0.000342652937825
1.6532145896e-06
-1.35395178767e-06
-1.63663627732e-06
1.29350175556e-06
-1.63241187406e-06
1.18664988692e-06
3.07385984172e-06
-0.000411125625816
1.59723721591e-05
1.92840773179e-05
1.4429198282e-05
1.25400625912e-05
0.000177609150329
-1.70917993902e-06
-1.27213247065e-06
4.3845815416e-06
-1.53388320178e-06
5.25361521587e-07
2.41624199752e-06
-0.000204238447393
5.90486484327e-06
-7.40929362548e-06
2.11682583593e-07
6.70484892553e-06
-0.000463959822672
0.000157556185963
-2.02177375841e-06
2.2756036576e-07
4.93424212887e-06
2.95475585334e-06
6.83234566142e-06
1.53338196261e-06
7.61487285509e-06
-0.000448730336219
-0.000251311853142
2.1238601859e-07
2.61308415563e-07
-2.99662016794e-05
-0.0126026588958
-4.66984149569e-05
0.0126045376739
3.56602953724e-05
0.0126124101329
4.02973809635e-05
-3.63494418943e-05
-0.0126157585678
4.11755768471e-05
8.74003138971e-05
0.011602763196
-9.61437083101e-05
2.98966539849e-05
0.0116049833704
-0.0116157428869
8.36956996218e-05
0.0126138110138
-2.27409142945e-05
-0.012607736849
4.38222810954e-05
0.0115907991406
7.38579773613e-05
-2.24835471193e-05
0.0126029904889
-7.13838228974e-05
3.06193970446e-05
-0.0126127134905
9.3008082427e-06
1.8299426943e-06
0.0126231352567
6.49988053713e-05
7.29114958517e-05
-8.36052238099e-05
9.36912343794e-05
-0.0115658626297
4.87254969641e-05
0.0115326913687
-1.23591066162e-05
1.82484993401e-05
0.0126132117687
5.96812063989e-05
0.0115652223339
-5.01925053379e-05
5.04572828611e-05
-0.0115859600065
7.54553697835e-05
-4.41616957416e-05
0.0115316672118
4.54486361935e-05
-2.38387203844e-05
0.0125952035344
2.97261359447e-05
0.0125968017106
-5.53590972808e-05
-0.0125997268585
7.79283187782e-05
-0.0115659162248
0.0115343813741
0.0126049677769
-0.0115885520217
-0.00013211599406
0.0128212644526
3.3148691481e-05
-3.35069042742e-07
0.0109617011342
2.96378547588e-06
0.0109395585331
-2.30343353547e-06
4.1099869915e-05
-8.95580868709e-05
0.0128186118784
-4.69372191029e-05
8.52082480304e-05
-2.06474145321e-06
0.0109227529228
8.17958207258e-06
0.012820180839
3.49165569252e-05
0.0109011033852
1.33068824836e-06
4.22208656539e-05
0.0128083411377
-5.54674683391e-05
-4.22739731108e-05
-0.0128109688572
-4.10716599147e-05
0.0127850456159
4.1473082617e-05
5.02286092124e-05
-3.36585665986e-06
1.34187938216e-05
4.18783531003e-06
-0.0108746171016
4.6459984503e-06
0.0108683570788
4.13445802308e-05
-4.1024566653e-05
0.0127824894331
5.12267285011e-06
-0.0128344596184
-0.000104585208468
3.91375655252e-05
-3.29266743154e-05
-0.00017845653809
-4.40435561462e-05
-1.63790931488e-05
0.0109179553464
0.010898234881
-2.14466584187e-05
8.80950266413e-06
0.0108584639777
-1.23338729796e-05
-0.000103774808219
0.0128195692841
0.0108814173314
0.0108295378536
-6.0709631913e-07
-1.16445063754e-06
-2.41215692444e-07
-2.20375056394e-06
0.0108240070179
1.21922160356e-07
2.75123402808e-05
0.0127829203194
-1.89784899457e-05
0.0128083382047
-6.53155462374e-05
7.47007031168e-06
-0.0108575590787
0.0108531199807
0.0127817184508
-5.12901722632e-05
4.4370330351e-06
7.6005119582e-05
0.00110180918864
0.203396316789
2.91576991426e-06
-0.000672164217494
-0.000153073328756
1.38128646097e-05
-7.84374769309e-06
1.47230755103e-05
-1.39086170572e-05
0.000191595997308
0.0510341706002
-2.51109984778e-05
0.000170829797452
2.38448107297e-06
-3.01382266949e-05
-2.2162766431e-05
-3.25442683152e-05
-0.000244304635845
-0.000452265414518
0
0
2.25501316769e-08
0
6.50079675602e-28
1.49539323053e-08
4.28136689789e-27
-9.61528637663e-05
-8.69211035516e-05
-8.92654425442e-05
-9.80377729445e-05
0.000262519702429
-3.90844385355e-05
0.0506050792977
-6.52222810309e-06
9.38382376647e-05
-3.82894605362e-05
0.0114876403097
0.051011180348
2.53140922911e-05
5.44480793732e-06
2.07446718129e-06
2.97374331518e-05
-0.000100601807901
0.050867602767
3.17296972362e-05
5.36609674764e-05
4.47984887681e-05
3.51086437918e-05
0.000172455110965
-0.000118127176883
-1.26673619903e-05
0.0108679423515
-4.80138075779e-06
1.38612816907e-05
3.73806279691e-05
-1.54146762225e-05
-2.95234274077e-06
0.0108112360317
8.99404743684e-07
0.0108088760596
7.93444952437e-05
-7.07941721768e-05
7.18694302033e-06
-0.0108178600098
-1.42882304481e-05
0.050743225021
3.15051365897e-05
4.31509483871e-05
3.2902149663e-05
4.34203316662e-05
-8.34694114382e-05
0.000199304566379
-0.000142402175973
2.81743576365e-05
2.55270660148e-05
2.10258749832e-05
3.48575594881e-05
-8.52162262023e-05
0.000220331982979
0.0506703351552
-0.000171745165341
8.4011428917e-05
-6.07913154567e-05
1.1044219363e-05
0.0107897322372
-2.2369960206e-05
2.52492475165e-05
-2.02223281981e-05
1.46380295601e-05
-0.0107824554879
0.0107762042934
-1.65161169396e-05
7.20441379941e-06
8.97728863844e-06
9.56955856406e-06
-0.000250963100362
0.000545060164563
5.67325913271e-06
-0.00041908944731
6.39614679243e-07
-2.92102613825e-05
-4.94114084472e-05
-3.93192523817e-05
0.000102202179227
-1.61109389478e-06
-0.000222064875084
-5.87486881625e-05
-7.23901119099e-05
-5.75992687104e-05
-0.00013194930516
7.93363306462e-05
1.12067631711e-06
1.75685447285e-06
2.65528872953e-07
2.53219247566e-07
3.90670060644e-06
-2.55717875787e-07
2.19754243392e-07
1.92956053949e-06
-8.31799961573e-05
-5.68691270738e-05
-7.68312042872e-05
-5.30531565581e-05
-0.000128566565215
-8.44111183433e-07
0.000124264243457
-2.30587502539e-05
-3.19717730226e-05
-2.66093502293e-05
-0.000177928737611
-2.03858454106e-07
-6.40115133759e-05
0.000206763535804
-0.0126090965885
-0.000122128616593
6.41952002973e-06
7.23618393981e-07
0.0126285629539
-1.84161603086e-05
0.0125971425182
0.000100111309336
0.0114921997936
-3.72704872955e-05
-3.1189336252e-05
0.000122626178899
0.011429673115
-1.12880714032e-05
-2.54142251535e-05
0.0114361949592
0.012617723084
4.04982490861e-05
-0.012759150319
3.98692809713e-05
-3.66343461195e-05
0.0127289938005
0.0127606252444
-4.08442636171e-05
4.38887705543e-05
-3.59170852243e-05
-5.51589287615e-06
1.30222120929e-05
0.010880051296
-7.51859568501e-06
0.0108560046029
3.36631247818e-06
4.7202569679e-05
0.0127325476074
-3.94619735619e-05
1.63059386653e-06
0.0108653335202
-0.0127608706079
4.1040744818e-05
-2.06156989533e-05
0.012729148832
2.31039111184e-05
0.0127611924414
-1.16340528166e-05
-6.379443835e-06
0.010838848278
-1.63360184765e-06
-5.3533226752e-05
0.0108291834706
6.66388061138e-07
0.0108513946599
0.0127283336477
-1.15732157353e-05
0.012702603238
4.12732861389e-05
-1.96237593873e-05
3.70075370348e-05
2.20276975318e-05
-0.0127013263858
0.0126777898918
-1.56579672697e-05
-4.88544078415e-05
-0.0108378834984
0.0108273399796
7.05938644577e-06
4.07919082853e-06
-5.48367201962e-05
-9.15590933251e-06
0.0126806506828
4.00917813431e-05
3.97236393965e-06
-1.20320342855e-05
-0.0126599662333
2.83817384237e-05
-2.67249045252e-05
0.0126455689624
4.43230535748e-05
2.36629339504e-05
0.0126537427625
-1.74044324009e-05
-3.62918652198e-05
0.0108104743056
1.10169658297e-05
1.59021837637e-05
-5.41491142519e-05
0.0107711386529
-2.25533533853e-05
4.10392957033e-05
0.0107932890777
1.43547841865e-05
0.0126370938576
-2.0791815421e-05
0.0126323716887
2.51821523941e-05
-3.48870101394e-05
5.12001998257e-05
4.14632468597e-05
-0.0126242783384
0.0126198663351
-3.17831321763e-05
-1.35051660403e-05
-0.0107884303903
1.30049639752e-05
0.0107734808476
1.74635388845e-05
-3.92619460366e-05
-2.27372283861e-05
5.52501776491e-05
0.0126260711318
1.41663445519e-05
-2.62396992085e-05
-0.000595972363079
-0.0495421580593
0.0494873855224
0.00076442981287
-2.97545938877e-05
-4.73160962793e-05
-2.98431318676e-05
-5.53287175794e-05
4.86086654629e-05
-0.000827413865292
0.0500206991995
2.52803446027e-05
-1.6766949584e-05
1.41296382511e-05
7.34372019172e-06
-1.29050445141e-05
-0.0499245002494
0.000714327082116
-0.00115735698198
-0.0500971261904
0.0502192477184
0.000910693687142
7.05724706393e-05
5.09557820163e-05
5.92148007888e-05
6.2189849686e-05
-0.00011839382928
-0.000672911283978
4.68285474964e-05
5.35882907812e-05
5.54875260926e-05
4.16402287679e-05
-6.75452173409e-05
0.0503192033721
0.000481914159394
-0.0502582123681
5.12741195125e-06
4.24675021002e-05
-0.000670703593141
0.000620347005158
-7.11466190959e-05
1.77271185131e-06
3.40043247481e-06
4.21719072423e-06
1.8285204912e-06
5.50122900036e-07
-0.000606576764653
0.000672852292847
-0.000124537703485
-6.89858784095e-07
1.29547389637e-06
-1.78248688303e-05
-2.44873321591e-05
0.00011265244103
-2.17038391038e-05
6.01501233327e-05
0.000551149480142
-8.78536442942e-07
-4.83661187263e-05
-3.86335300645e-05
-6.07791587565e-05
-0.000546027797073
3.07837481179e-05
-5.12798645906e-05
5.10871277721e-05
-0.000632842500827
0.00077537541515
8.67356730597e-05
-3.09239487409e-06
-6.63110944427e-05
-8.19886063856e-05
-9.08021261208e-05
-6.0377607151e-05
-0.000236728703532
-6.19218628752e-05
-4.12438772106e-05
-4.02268422936e-05
0.000722044021599
0.000318531761234
-2.39471679936e-06
-0.000623356714747
6.11747753654e-08
1.3048810449e-12
3.78551404146e-09
-3.7282357332e-09
-3.21666163474e-09
9.40170761825e-11
1.52471390719e-09
-1.3834092382e-26
-2.8919211612e-07
-3.19397293908e-07
-1.16007075813e-06
-4.71390312589e-07
-1.15160844104e-06
1.4979449336e-07
-7.26131731793e-08
0
0
6.35928116515e-09
7.06853468997e-09
0
0
-1.34265109741e-08
-1.22850582648e-07
-1.40819742604e-07
-3.74528682042e-07
2.0671978229e-07
8.23470502779e-08
2.09672212081e-07
4.70029363462e-08
7.94131213139e-09
2.24562962543e-07
3.40272320954e-07
-8.30947145092e-08
-3.12712862974e-09
9.33136471921e-09
1.5727331842e-07
1.2113329498e-07
2.05243237859e-07
1.93274125043e-07
8.57746742973e-07
-3.44442538144e-07
0.00018804199279
-1.85520884445e-05
-2.58077754461e-05
-2.39236373928e-05
-2.09380700033e-05
0.0491054038437
0.000167422969562
4.96305757309e-06
-0.0493767090175
0.0492017417643
0.000379752936058
-2.84723872075e-05
-4.24321171431e-05
-3.32286295006e-05
-4.44676412668e-05
0.000178347296675
-0.0494233204866
-2.61452962976e-06
3.58264064524e-05
-0.0117235098552
1.85423657853e-05
0.0116892236553
1.08384120132e-05
0.0116648939245
8.52164172246e-05
-5.1715296894e-06
7.17620028946e-05
-6.41957482644e-05
-0.0117051813505
-1.72445226824e-05
-3.37454519151e-05
-1.96723551247e-05
-1.90037868675e-05
-0.000308257802974
0.0123159621081
0.0122726935942
0.0121843931382
0.0122251443663
5.42883447752e-06
0.000107578536584
-6.19599234446e-06
7.23576345475e-05
-8.15101374372e-05
0.0116205488892
0.000548947243963
-7.16709069476e-05
-6.04196423261e-05
-6.01126112164e-05
-7.02143803328e-05
0.000134187224425
-0.0495829052411
0.0497263038341
-6.50696458872e-05
-5.43219668164e-05
-5.9888132931e-05
-6.61748794768e-05
0.000127802462646
-0.0497165992108
0.000657154048057
0.0116169769077
-6.47049711555e-06
0.000101416631897
-0.0116567878322
9.16694865894e-05
0.0114882482362
-3.47603397594e-06
5.97621378366e-05
-6.67485344647e-05
-0.0114974153418
5.10098961627e-05
0.00102860941574
-8.90597288072e-06
1.55051217634e-05
-2.62553628991e-06
1.16293922028e-05
0.049424188619
-0.000223156950494
-0.000183588666321
-0.000225899033779
-0.000180937125751
-5.82325386545e-05
-3.02588913583e-05
-4.56034088987e-05
-3.32509514669e-05
0.049758589528
-1.3581746049e-05
-4.0826084442e-05
-4.20681674228e-05
-6.91914138116e-06
8.21545635549e-06
0.0498803457099
0.000969186858219
2.65148639636e-06
2.57016273269e-05
1.26394291979e-05
1.54882150022e-05
-0.000118823594642
8.45874675217e-05
0.0115806403283
0.000113611559102
0.0115348410226
5.06410061033e-06
1.69715105861e-06
-0.0115492131015
0.000157711335904
-0.000155528162441
7.01907100393e-05
6.01099887356e-07
4.516224785e-05
-8.83666792918e-05
0.0114660134533
0.0114309465709
0.000108004620585
5.67458684008e-05
-3.24311209524e-05
-0.000135585967665
-0.0114320659373
0.050006507912
5.26930246034e-05
5.11301145356e-05
4.53535907153e-05
6.25120904112e-05
-0.00124522203673
-0.000249824354684
0.00131932362467
7.31757318356e-05
8.97144589077e-05
8.39443412285e-05
7.78840215455e-05
0.0504578900986
-0.00043748020357
-0.00165778035407
-1.95071891241e-05
0.0115358146164
0.000170826412233
-0.000160192661998
-2.29662613972e-06
-3.82837743058e-05
-0.0115830080163
0.000184414127313
0.0116211225114
-0.000184938005281
0.000126724093957
5.2717249008e-05
-5.94603107003e-05
-0.00015167420439
0.0114540938947
0.000148332532019
6.43876680932e-05
-9.46903232834e-05
-0.000167749630065
-0.0114863641163
0.0115165574197
0.00080787920086
4.20436702141e-05
3.54791316945e-05
3.16622287315e-05
5.26248549306e-05
-7.67270845588e-05
0.0501933126505
5.06758787504e-05
5.63449467613e-05
5.76426846784e-05
4.99472626237e-05
-6.89517035668e-05
-0.0501475200633
0.000616401989209
8.46098380854e-06
0.0114484287551
6.47399637371e-05
-0.0114745261674
0.011423481731
4.26793215067e-05
-5.09053934206e-05
-0.0114162173435
0.000106751760193
0.0114456086639
5.59562407511e-05
-8.54882205853e-05
-9.81960733679e-05
-0.0114347011487
0.000108479974449
0.000987666604746
8.74815050107e-05
8.27805151528e-05
7.67555990273e-05
9.50578741976e-05
0.0504246072427
-0.000215771375009
0.0502957243417
7.37867817916e-05
6.51174308782e-05
6.72537564423e-05
6.87276418417e-05
-0.000139465313747
9.11334782082e-05
8.71723986248e-05
8.16617683487e-05
9.79657149738e-05
0.0504051072389
0.000710020583655
-0.000189737758452
-7.07850217864e-05
0.0114423039274
0.000120459154194
6.14750580312e-05
-0.000107005307566
-0.0114662854729
0.00014572073169
0.0114975973593
0.000115565781681
7.0199354636e-05
-9.43419753426e-05
-0.000109260207183
0.0114562233064
0.000150585548139
7.32950928626e-05
-0.00011693938157
-0.00014280215521
-0.0114780961064
0.0114976719624
-8.49432619302e-05
0.0114683938447
0.000122261619738
-0.011458497517
-9.15933631976e-05
-0.0114951894313
0.0115101531579
6.69973086201e-05
0.000147547219081
2.86201482824e-05
1.81842022037e-06
2.0425925074e-06
9.86670894778e-07
0.000720104411911
-4.85422695853e-05
-0.000723722057957
8.54370634993e-07
0.000708545095704
-1.17652106645e-05
2.99563265315e-06
3.62523332075e-06
1.54855564157e-06
-0.000721554594349
1.45024521731e-06
1.93511950936e-06
4.85172597762e-06
5.65378102399e-06
5.98329307765e-06
-3.53169728351e-06
0.00068043740819
4.53802584412e-07
-5.23084030665e-08
-1.74560838068e-06
7.46110692705e-09
-8.52878376699e-08
-4.90778999504e-08
1.12186052755e-06
-1.67934468085e-06
-4.76366049387e-08
8.04539866018e-07
-2.68056135827e-07
-2.15086900999e-07
1.74198621377e-06
-2.89970342483e-07
-1.55635657096e-06
2.53552370198e-06
-4.03072888849e-08
-9.20900941814e-07
-2.56232139902e-07
-1.19624607714e-07
3.45284501316e-06
-4.14355255052e-07
-8.6325685139e-07
3.85342607917e-06
-3.39538908324e-07
-9.26547476413e-07
-6.08799086495e-07
3.98412319482e-06
-4.30924734227e-07
-6.84156200451e-05
5.61886004605e-06
7.76903510501e-06
6.80969238973e-06
2.09273581024e-06
-0.000710306628419
0.000595621503936
4.6958232483e-06
5.96991211099e-06
5.69580701229e-06
-0.000642814545779
9.10130409338e-07
-6.49615327586e-05
-0.000104542016284
1.33062356945e-06
1.06579845575e-06
-1.22089604242e-05
-1.57354427493e-06
7.12372547021e-05
0.000541021050291
1.04607514005e-06
7.67250276076e-07
-2.96954784265e-05
-1.45529022937e-05
-5.01492946235e-07
0.000575332122703
-7.45380044614e-05
-1.62841402355e-05
-5.47173943645e-05
-1.21832278171e-05
1.56669152573e-06
-4.43395063823e-07
-7.3196962871e-07
-2.65580924942e-07
2.48871053553e-06
2.48390784416e-06
-3.72117460623e-07
-1.5919540757e-06
2.88348817688e-06
-1.47909762133e-07
-0.000135392811564
-3.30357450804e-08
2.49857975719e-06
1.42575249809e-07
-1.1703154679e-05
0.00069567196981
0.000104065788614
0.000719343766939
-2.67472344499e-06
-2.51493501684e-05
-6.94487089647e-05
-3.29117871586e-05
-3.43666419939e-06
-5.90524511911e-05
-2.20884726857e-05
-7.62656323894e-05
-2.76946407431e-05
0.000805413966938
3.70984931863e-06
-8.68031834133e-08
8.69890078756e-08
3.87589126038e-06
2.96223633138e-06
8.16546377341e-08
4.65069088898e-07
3.66656739002e-06
5.52182402245e-05
-2.16788696741e-06
-5.60145868942e-05
-8.15333563958e-05
-7.96220456221e-05
-2.34220816365e-06
0.000668802822026
-7.16217453205e-05
-6.23486769156e-05
-7.21412125951e-05
-0.000573106996761
0.000193982679319
2.78873669713e-06
-2.26885653635e-06
-1.70373313111e-07
-7.43183584582e-08
3.04320171163e-06
2.9738944483e-06
-2.66878813605e-06
-5.71210950721e-08
9.83860722203e-05
-4.07391037913e-06
-7.06776308355e-05
-9.30701834399e-05
-8.7173113845e-05
0.00091562780492
0.000802109463054
-2.84257214687e-06
-8.27402097949e-05
-7.73006786709e-05
-8.89634687484e-05
-3.35115513907e-06
-9.69311344365e-05
-7.39257167726e-05
-8.85231768033e-05
0.000937368651223
0.000276525132404
2.66590473849e-06
8.4380539353e-08
2.33131067414e-07
3.29236259408e-06
2.68536234828e-06
-7.9031475843e-08
3.00048630459e-06
-1.66150678913e-07
0.0123593287448
-1.4209593949e-05
-1.4767004399e-05
2.86557657883e-05
-0.0123775600007
1.86779297196e-05
-0.0123561004813
0.0123378972117
9.77931790941e-06
1.99680726704e-05
2.06941022893e-05
5.6762089164e-06
-0.0117445072178
3.18349997976e-05
-0.0117384702576
4.33675038627e-05
0.0117073646269
4.31726670366e-05
0.0123427453699
4.08576903414e-05
-0.0117594641977
5.82721166044e-06
-0.0123769386651
0.0123714385693
4.66150760316e-05
-3.30742239488e-05
-0.0123847960428
-6.86616255245e-05
-0.0123925271183
0.0123925166639
9.82421168868e-05
5.03753812479e-05
-0.0117324007876
0.0116956405539
6.39711331279e-05
-5.41144923585e-05
6.56108012e-05
-0.0117362467822
0.0123631649766
7.13858490127e-05
-0.0123977177176
-0.0117576395093
-0.0123586456537
0.000127737867662
-5.01899173447e-05
-8.40402651264e-05
0.0123480869889
-9.5089205552e-05
0.0123926044711
0.000133945885272
5.42186065185e-05
0.0116590169941
-4.98448348166e-05
4.76037128339e-05
-0.000102889553152
0.000130954551659
0.0115910643804
-5.5789099958e-05
0.000167029518152
0.0123822533679
-6.11545658755e-05
0.0116197329575
-0.0001066354086
0.0124540341285
-0.000114743271247
0.000137899993419
-0.0124416891557
-0.0124224533719
0.000135072277092
0.0124270765356
9.92967082109e-05
6.95113255761e-05
-0.0116928081587
0.00010746412929
-0.0115960051574
8.71230834123e-05
0.0115539451559
-0.0124182976061
0.000165000585362
0.0124618384947
5.87979589348e-05
-0.0116408568782
0.012483629731
0.000164888100873
-0.000105597662094
-0.0124693585732
-0.000185973913005
-0.0125068867404
0.0125073492034
0.000191212014312
8.54088124581e-05
-0.0115466266963
0.0115176443372
9.37848808121e-05
-4.26047607326e-05
-0.0115327572808
3.12334697846e-05
0.0124887344704
-0.012492551139
0.000178643095154
-0.0115870185206
-0.000197563387675
-0.0124606427721
-3.62025431494e-05
0.0124498057493
0.000215228959056
0.0124297588212
0.000169103524902
4.81261551219e-05
0.000135594192011
0.01156365816
7.77436093934e-05
0.0115239261524
0.00010821934786
0.0124179479691
0.000193189869888
0.0115182096818
0.000127552093625
-0.000227366827384
0.0124492273459
-2.35181474568e-05
0.000242845331385
-0.0124138478376
0.000259703898001
0.0124071515829
-0.000235789983295
2.52024545981e-05
0.000143780709164
-0.000139582397854
3.93065573261e-06
-0.0115032033975
0.000147442947414
0.0114965886305
-0.000200533931138
0.00027284978107
0.0124518910462
0.000135209939187
-0.0124851493052
0.00022654579227
-1.84898800528e-05
0.0124790236102
-0.000210355034311
0.0125069902819
0.000215254213844
5.56186130621e-05
0.0114951183814
7.93035801348e-06
-0.000107597737119
0.0114470076136
8.28674874038e-05
0.0125065861622
0.000228130477585
0.0114895327626
0.0124814654006
0.000255107191416
-1.16003322924e-05
-0.000279192507452
-0.0125085981147
0.0125122706284
0.000269326474714
-2.85016680231e-06
-0.0114806015805
0.011476984004
-1.66019206855e-05
-0.000122768550888
9.41233340721e-05
0.0124854182605
0.000252264460954
-0.000333320311137
-0.0124533213785
5.1113818138e-05
0.0124592564187
0.000336925720512
-6.10483977664e-05
0.0124075713101
0.000296858185112
-4.33146234719e-05
-0.000273427743292
-2.16039782593e-05
0.000177785642834
0.0115536426799
-0.00016941161373
-3.48510734326e-05
0.0115099307775
0.000163187421063
0.0124214619916
-5.60800933577e-05
-0.000312762465611
0.000305487922244
-4.50495843871e-05
0.0115220664514
0.000171663978201
-0.000364680508727
5.33830121653e-05
0.012510782126
0.000370564688118
-0.00011136677138
-0.0124916806913
0.00038365769948
0.0125727457913
-0.000376798844425
-0.000126131855099
-2.01976784576e-05
0.000184734722513
-0.000180072294158
-0.0115516504103
-5.21531191974e-05
0.000183006673842
0.011587784831
-0.000342324123481
-0.000112577211277
0.000179475041272
0.000393348061252
0.0125714628405
-0.00012270383786
-0.0124895465491
0.000330512834889
4.94768926913e-05
0.0124989037201
-0.000307185606523
0.0125198863682
0.000291401681075
-3.95306447787e-05
0.0114914141393
-7.66017809711e-05
-0.000160242565988
0.0114682428302
0.000137230667849
0.0125283595032
0.00030783305625
0.0114944924093
0.000354669375567
5.94206709425e-05
0.0125283002961
-0.0125425556222
-0.000370531886754
0.000339811173386
0.0125679185278
-0.0115231109618
-5.6836647812e-05
0.0115619794773
-9.72699474918e-05
-0.000166507958532
0.000143569037822
0.000326573710966
0.0125720236464
-0.000214204162638
-0.0125440979806
4.93382236169e-05
0.0125438641956
0.000190281012963
0.0125277208357
0.000203319990128
-0.0125242017395
-2.8792854671e-05
7.5249101804e-05
0.0114278355121
-1.95288692766e-05
0.01143318297
-0.0114553276164
6.40115801658e-05
0.0125270974907
-0.0125356663114
0.000182543080002
0.0114215144338
6.92171549669e-05
-0.00023480021914
0.0125440032733
7.29704644649e-05
0.000203830042056
-0.0125279601604
0.000249689902613
0.0125326623909
-4.84863277408e-05
9.06737559139e-05
-8.5830714497e-05
-0.0114115933903
9.59348105007e-05
0.0114145487803
0.000214234676061