/*--------------------------------*- C++ -*----------------------------------*\
| =========                 |                                                 |
| \\      /  F ield         | OpenFOAM: The Open Source CFD Toolbox           |
|  \\    /   O peration     | Version:  v1906                                 |
|   \\  /    A nd           | Web:      www.OpenFOAM.com                      |
|    \\/     M anipulation  |                                                 |
\*---------------------------------------------------------------------------*/
FoamFile
{
    version     2.0;
    format      ascii;
    class       volVectorField;
    location    "5.85";
    object      U;
}
// * * * * * * * * * * * * * * * * * * * * * * * * * * * * * * * * * * * * * //

dimensions      [0 1 -1 0 0 0 0];


internalField   nonuniform List<vector> 
28582
(
(0.811504323182 0.00112227042044 -0.000641659611954)
(0.81318543555 -0.000739694593402 -0.000763856624592)
(0.811370449924 0.00111152819272 -0.00204441406064)
(0.813308870923 -0.000895942232524 -0.00209830851567)
(0.810788798633 0.000683448859507 -0.00436239069128)
(0.81378105801 -0.00105242455362 -0.00545508674861)
(0.808067250074 0.00129369767282 -0.00537102679202)
(0.812787290474 -0.00126847673946 -0.00769640481315)
(0.290619713355 0.109197668338 -0.00479200644792)
(-0.0858342775383 0.0606972685174 -0.017522271447)
(-0.0558169837038 -0.120099481991 0.223218723395)
(0.810269068451 -0.000156868596738 -0.00791006740295)
(0.792578869699 0.00284142640565 -0.00377871792646)
(0.788584635587 0.00216940515192 -0.00808449311144)
(0.817107563289 -0.00233241427424 -0.00767241988344)
(0.816504857131 -0.00209925216135 -0.00808871282277)
(0.787679223854 0.00190314367638 -0.00811662566381)
(0.8190953507 -0.00336048634294 -0.0124184624156)
(0.819141225181 -0.00358631584148 -0.0137317239858)
(0.811182226611 0.00391358667751 -0.000679836829255)
(0.813462420368 -0.0023608785342 -0.000585237139357)
(0.812435844066 -0.00333710604754 -0.000285219836771)
(0.811142334834 0.00364144534894 -0.00122902321396)
(0.813995897797 -0.00236217085763 -0.00133684506019)
(0.812941122694 -0.0031276237046 -0.00020152234846)
(0.810438851405 0.0030512138105 -0.00184994601127)
(0.815745832021 -0.00279649741369 -0.00279464798475)
(0.808434701227 0.00291967528373 -0.00208636270048)
(0.817485558146 -0.00222187916352 -0.00559884603315)
(-0.144038777986 0.0918708743729 -0.00995307922468)
(0.107328483185 0.0291330065726 0.129727459362)
(0.0257407763761 -0.0205851413104 -0.451520385972)
(0.809030807468 0.00130547604608 -0.00315883035934)
(0.808022686668 0.0018850098712 -0.00283856392174)
(0.797444121763 0.00695790960911 -0.00140677007068)
(0.796160938973 0.0049313247153 -0.00458975461343)
(0.806045198619 0.00242445269612 -0.00393120962567)
(0.818644250044 -0.00274437759379 -0.00217316987134)
(0.816985035438 -0.00199866802643 -0.00532293658432)
(0.818407114482 -0.00211690989152 -0.00120145117673)
(0.819875032851 -0.0031535784173 -0.0100321174597)
(0.786497065507 -0.000805367807387 -0.00032963710821)
(0.820023781143 -0.00335768467168 -0.0108997567103)
(0.820707208326 -0.0013921923252 -0.00562234953346)
(0.163583973529 0.0735290335244 -0.0115403356932)
(-0.104275837601 0.0685077923426 -0.0202670644621)
(-0.0863671788537 0.0865528266168 0.124958527797)
(-0.0910634615223 0.025795590279 0.126871479571)
(0.0271729305429 0.0514969630585 -0.0170932450498)
(0.0718316403066 0.0336086855847 0.171940037449)
(0.805917387807 0.00151007795584 -0.00600171940861)
(0.805290997235 0.000368646240005 -0.00801901093892)
(0.791123675956 0.00246785393019 -0.00573680121168)
(0.792061613545 0.00284978833373 -0.00345047254729)
(0.80517029056 0.00116780033622 -0.00592407878638)
(0.790586183988 0.00287604395531 -0.00550397231088)
(0.806227995029 0.000713539922319 -0.00823983178573)
(0.807082257769 -0.000765300880973 -0.00929200592883)
(0.809489207032 -0.00106593722431 -0.0118083778979)
(0.78972425717 0.00232514034567 -0.00664546335833)
(0.787692866673 0.0017278794996 -0.00833035915956)
(0.80862519519 -0.00169943046846 -0.0123978905085)
(0.789026838506 0.00187231673494 -0.00652821904545)
(0.807974429515 -0.000314934388182 -0.00931122881495)
(0.813986106454 -0.00328753592965 -0.0140858978259)
(0.811463315386 -0.0018742071798 -0.0112973123445)
(0.786797319184 0.00134264826137 -0.00864697864933)
(0.786713947147 0.000836016301232 -0.00870560528521)
(0.810801363439 -0.0027770035181 -0.0120176621412)
(0.78585788754 0.000190553902344 -0.00928301668324)
(0.814158774211 -0.00220770463324 -0.0129593509497)
(0.819003984831 -0.00227975536027 -0.0114811671469)
(0.786557500433 0.000472858286085 -0.00788493338966)
(0.78590114493 -9.89541040225e-05 -0.00835424739399)
(0.81566885954 -0.00338126487261 -0.0125875591063)
(0.786799073163 0.00113152553703 -0.00833449984803)
(0.785825935763 0.000151244710997 -0.00900201371196)
(0.81571646162 -0.00222927866238 -0.0115393518776)
(0.819750464325 -0.00317462470263 -0.0149933108482)
(0.785702002654 -0.00067330294685 -0.0101722552179)
(0.785687201846 -0.00233422645693 -0.0113856565572)
(0.815286937134 -0.00364746392423 -0.0141112002462)
(0.785485875558 -0.00233065330557 -0.0119504243028)
(0.815035482058 -0.00328022896727 -0.015338588941)
(0.785538169178 -0.000563814891221 -0.0109487564506)
(0.396991107848 0.158356673835 -0.0027416745654)
(0.164994865183 0.0818445959241 0.175245078733)
(0.413431360189 0.200344590095 4.04720642118e-06)
(0.356442321871 0.181979127587 -0.00152489807112)
(0.158724720998 0.136827355559 0.11763519015)
(0.103578281947 0.122473623824 0.155217742023)
(-0.160027226819 0.0733738351838 -0.007672466493)
(-0.101049983826 0.137209973455 0.0672097682655)
(-0.110154529369 -0.0141288629748 0.0837997236)
(-0.186462536692 0.064392571109 0.00553238116863)
(-0.00613913074726 0.149644945008 0.0307184438961)
(-0.176571206631 0.0924498580794 0.0014544108856)
(-0.0127975893401 -0.00667797804414 0.0512863041459)
(0.806709567581 0.00204670430097 -0.00281094400301)
(0.807327758304 0.00249545914815 -0.0014845989063)
(0.797313243961 0.00635373105339 -0.00210389429984)
(0.7967821573 0.00633421806473 -0.00169984988415)
(0.80738949106 0.00174464280108 -0.00237820463753)
(0.806817159742 0.00256503820047 -0.00193192230278)
(0.79641566514 0.00566528173665 -0.00243627487588)
(0.806919015913 0.0016463455649 -0.00463233347854)
(0.807671137149 0.000384574541649 -0.00534114181029)
(0.79687583434 0.00551013457648 -0.0032007286819)
(0.795072361333 0.00390109935054 -0.00470357219636)
(0.807590623884 0.0012643872531 -0.00403639750378)
(0.807000480964 0.000853447298105 -0.00592337703545)
(0.796026832191 0.00463165482719 -0.00348449386127)
(0.794686296916 0.00349893774345 -0.00295623963136)
(0.7937875625 0.00327258594281 -0.00392769159095)
(0.805868898137 0.00173414777899 -0.00480420104769)
(0.806513547573 0.00211736633406 -0.00378698496423)
(0.794432458499 0.00307443395807 -0.00379272602809)
(0.806498947883 0.00138967064842 -0.00500933058916)
(0.795146870813 0.00373249256478 -0.00262914442024)
(0.819831639032 -0.00218132560146 -0.00926541312813)
(0.786561533995 0.000104781477527 -0.00710030851442)
(0.786002400079 3.89113657921e-05 -0.00739623272066)
(0.821443641803 -0.00290244445953 -0.00730895226993)
(0.78663389593 -0.000290011102358 -0.00530472812222)
(0.821402595831 -0.00214574852373 -0.00679188849295)
(0.786010225048 0.000230462092094 -0.00542726006133)
(0.820258164228 -0.00284813913853 -0.00524876339957)
(0.819739895394 -0.00233946585479 0.000259566069673)
(0.786979715494 -0.000683676203567 -0.00372178880712)
(0.786169008424 0.000380924422474 -0.000510220794585)
(0.820409369033 -0.00235404715063 -0.00467886059039)
(0.819559078876 -0.00280169845477 -0.000343036128261)
(0.786400464786 0.000401378589609 -0.00390106945408)
(0.822213483474 -0.00210633892237 -0.00822285786267)
(0.820515630976 -0.00282603176656 -0.012218231632)
(0.785831447551 -0.000305683806771 -0.0091308089088)
(0.785981542752 -0.00177137287664 -0.0102643992057)
(0.785868648196 -0.0011231715314 -0.00738270534882)
(0.821687151367 -0.00281299387962 -0.00777411956778)
(0.78579567306 0.000123960462007 -0.00694903936186)
(0.786255267915 -0.000184330716873 -0.00492370213622)
(0.785274627144 -4.16253631179e-06 -0.000707913505186)
(0.819734675985 -0.00123908512536 0.000316270261092)
(0.82030272023 -0.00226626684044 -0.00549213897764)
(0.785708118784 0.000467015841423 -0.0014501419337)
(0.819616422257 -0.00219221273055 -1.05708924178e-05)
(0.78610937132 0.000506596997027 -0.00522305138053)
(0.814509731233 -0.00331657169874 -0.000766667001705)
(0.81715737662 -0.0027285998075 -0.000464712196195)
(-0.188064844436 0.0784185017049 0.00688101670862)
(0.0507620306724 0.0056102826458 -0.570718514426)
(0.809238121556 0.000873454943958 -0.00449034919712)
(0.792701357272 0.00278156378708 -0.00440767988849)
(0.816930657733 -0.00207445828046 0.000674017273863)
(0.814703071178 -0.00235240119888 0.00222887905068)
(0.785832568785 -0.000741188279819 0.000905311166345)
(0.78447598192 -1.23501576169e-05 0.00069857896038)
(0.780023902461 -0.00111291544138 0.00301776451557)
(0.813237169536 -0.00280681303654 0.00142948687892)
(0.811034077788 -0.00322477185192 0.00121957542482)
(0.778005530723 -0.00161355075499 0.00281458494367)
(0.773460405322 -0.00152753124919 0.00135150899564)
(0.309384839805 0.124678633501 -0.00621355099835)
(-0.18413754767 0.0443739944592 0.0102214563492)
(-0.1088980038 0.0330593808192 0.0143233835459)
(0.0278546627995 -0.0483203323426 0.0621041191033)
(0.0224184234519 0.142307540712 0.0103021173303)
(0.0152378821193 0.120200607112 -0.0848508049235)
(-0.0355417256448 0.0413333122269 0.0138183255273)
(-0.00721449556916 0.062873864491 0.0051947719555)
(0.807774998733 0.000226625022059 -0.00798418743596)
(0.806570977346 0.001315898633 -0.00630267917937)
(0.793115561008 0.00255413835344 -0.00464176503412)
(0.791257178926 0.0025397107976 -0.00589007754859)
(0.80724381402 0.000984986850735 -0.00670345884396)
(0.791975363495 0.00176289621106 -0.00599074188065)
(0.807017740902 0.000596327159376 -0.00807175652212)
(0.816310625356 -0.002657179523 0.00228510685556)
(0.817959104484 -0.00242635383949 0.000641404563155)
(0.784520298699 -0.000646857374297 0.00139952601135)
(0.785306998733 0.000191701047222 0.000633554905247)
(0.816412670024 -0.0024699459578 0.00239397176125)
(0.817856780035 -0.00277063549403 0.000178036774587)
(0.784282589153 -2.99157523865e-05 0.00181868447293)
(0.816388723959 -0.0017917934017 0.0029719618527)
(0.818030447104 -0.000852783293534 0.00103793031301)
(0.784776859165 0.000441504611176 -6.67902172208e-05)
(0.783305633691 -0.000108831965874 0.00204682725683)
(0.817938948363 -0.00194484958171 0.000679666394597)
(0.783792002822 0.000388206265471 0.00121949252484)
(0.816248565029 -0.000829710839757 0.00351274733266)
(0.814278347073 -0.00175829445795 0.00270683113701)
(0.81233956911 -0.00102389024441 0.00477483119211)
(0.780350001007 -0.000102363427964 0.00154922188843)
(0.78170704619 -0.000688894634384 0.00256921208642)
(0.812515228196 -0.00189202560329 0.0038499620076)
(0.782318688498 3.47940478692e-05 0.0015794130966)
(0.814199218082 -0.000816277285107 0.00310220967059)
(0.810413926836 -0.00213755805984 0.00250312688589)
(0.811175635248 -0.00115545605029 0.00401076489456)
(0.778438551837 -0.000323477753789 0.00117616221736)
(0.775490609702 -0.00186534342174 0.00273106652305)
(0.811402580353 -0.00198658732831 0.00291304738528)
(0.775805903798 -0.000709705235044 0.000894962473484)
(0.810011891541 -0.00133472629689 0.00378739132759)
(0.809605705777 -0.00261467873908 0.00218334573087)
(0.808585143887 -0.00215777487981 0.00169070533819)
(0.773272570699 -0.000791587217854 0.000708303104456)
(0.774103625793 -0.00196679037746 0.00228935142596)
(0.809061896876 -0.00295057459553 0.00128376207651)
(0.774174518593 -0.000718764378489 0.00106686183126)
(0.809101024897 -0.00178299907865 0.00297460283217)
(0.794772760602 0.0105932426117 -0.000462138925084)
(0.800133151951 0.012826566215 0.000646993761829)
(0.802396369492 0.0173220687175 0.00283279700304)
(0.804109234999 0.00917080334544 0.00162980188134)
(0.412986734117 -0.0434799312236 -0.00163553544942)
(0.379244478415 -0.0793515409245 -0.0018497541529)
(0.301741479924 -0.0160779168135 0.00828838750349)
(0.376082318642 0.00279528651433 0.00532195550821)
(0.375473558537 0.163597848788 0.00255345711397)
(0.334534219341 -0.0419910249023 -0.202170523411)
(0.341049678306 -0.04934250949 0.571235025474)
(0.28189782816 -0.012074411562 -0.346225685958)
(0.341659379842 -0.049840264796 0.278013632936)
(0.29500496538 0.0152913260133 -0.395861535763)
(0.466722959736 -0.0398664165132 0.195837053599)
(0.789431361339 0.00164101731848 -0.00239386894984)
(0.791107415943 0.00441066119421 -0.00268174907211)
(0.781004659529 0.000415620183999 -0.00115639764917)
(0.781904080066 0.00480970530994 -0.00330768817219)
(0.789714197284 0.00726257487207 0.000278065260306)
(0.781671501234 0.00619426607939 -0.00321725727476)
(0.793445488497 0.0070698931849 -0.00211481200653)
(0.796913029745 0.00983048686522 -0.0013306351098)
(0.782924204147 0.00646176715326 -0.00487196709076)
(0.786426291197 0.00331744492604 -0.00436842869606)
(0.792813293201 0.0154098477593 0.00314912637247)
(0.797689696233 0.0129326650541 0.000942250483649)
(0.798165094281 0.0159930805234 0.00227366422708)
(0.783183383304 0.00785881036721 -0.00433785976231)
(0.7817516034 0.0107827878791 -0.000678487330626)
(0.786330583586 0.00485139370206 -0.0036976835998)
(0.783296234695 0.00809266233114 0.00111510844803)
(0.799774756733 0.0205109827793 0.00457737501984)
(0.802022812612 0.0244215150261 0.00644419436491)
(0.782138350247 0.0113128128987 0.000270053077094)
(0.788837423888 0.0125978921976 0.000207656858557)
(0.783467487218 0.00935573563582 0.00263976690397)
(0.788554860264 0.0109639553484 0.00508162365118)
(0.801137079211 0.014865232625 0.00202450898641)
(0.802633837489 0.0117816636091 0.00189992814317)
(0.787235799962 0.00453327771642 -0.000744947234227)
(0.784309525668 0.00715558758575 0.00221446693197)
(0.787046510373 0.00712771565669 0.00408953943341)
(0.803936829163 0.0188375176435 0.00392790808142)
(0.803476628947 0.0128415205266 0.00290978531275)
(0.804631286285 0.0135385511178 0.00381379344051)
(0.784689428658 0.00833816522594 0.00327358523728)
(0.788689735334 0.00986784048841 0.00576035293399)
(0.787391222224 0.0077300756836 0.00476475728131)
(0.789700767447 0.0100547056905 0.00630475330381)
(0.787741704548 0.00813445517746 0.00443347637784)
(0.790234836067 0.0100435038893 0.00503315174451)
(0.516245353952 0.0293461228557 -0.00417808429045)
(0.509116544508 0.00413086923864 -0.00530116591694)
(0.470297136683 -0.0159015671568 -0.0101894825138)
(0.216341000615 -0.0260141532964 0.112936320071)
(0.348396342629 0.00423951640549 0.115252843562)
(0.236932995308 -0.0587327202131 0.125308643914)
(0.377266925996 -0.0474587514953 0.105688047651)
(0.331252719536 0.0224845590827 0.0605214171934)
(0.200312963591 0.0226555132714 0.025209828621)
(0.363398214124 -0.03150447889 0.0506220136822)
(0.230130536444 -0.0298020589074 0.0215262828677)
(0.463526400244 -0.0295233922095 -0.00851883774855)
(0.382151216012 -0.05930980274 -0.00429004941749)
(0.378585875422 -0.0583771991489 0.00387901790477)
(0.334449186653 -0.0529472353635 0.00854809198061)
(0.320717002213 -0.066419584965 0.0070956242822)
(0.222337935848 -0.0865281914747 0.0929831660889)
(0.38548288827 -0.0680054433176 0.0615334286041)
(0.237408193828 -0.0495369942421 0.0341466752285)
(0.386896572317 -0.0220896337301 -0.0488631312379)
(0.391849025627 -0.0808053860958 -0.00401814559791)
(0.358523959034 -0.0597946067195 0.00407553629756)
(0.429169801186 -0.0680550185438 0.002195269423)
(0.375179784955 -0.0373609378636 -0.0478136424544)
(0.286023716964 -0.0270676357812 -0.00332660356304)
(0.373056354221 0.0140439717803 -0.202980589825)
(0.292360089015 0.0388922099879 -0.184525675422)
(0.327278027993 -0.0129197108965 0.00692956555745)
(0.339298042908 0.0665837269384 0.00502022035853)
(0.254046042998 -0.0310065638426 -0.0701118267193)
(0.378868626367 -0.0166931203915 -0.176640433258)
(0.37798147523 -0.00264914387972 -0.202577612079)
(0.461676030324 0.00636148358038 0.00266476804223)
(0.398712512391 0.0818012259159 0.00557370254134)
(0.472085591858 0.0969329410107 0.00298915759872)
(0.385346074185 0.00853121468971 -0.255544198677)
(0.339630975338 0.033284630226 -0.251470836769)
(0.415685885268 0.010714846379 -0.257384137888)
(0.381751973269 0.0153737436783 -0.263070278788)
(0.791990431502 0.00138414468639 -0.00151432958423)
(0.791207020606 0.000280719236689 -0.00231885309261)
(0.781815937132 0.000610756187872 -0.000347904586513)
(0.780811162288 0.00192116884472 -0.00085643206617)
(0.791516792157 0.00195292693971 -0.00223810686945)
(0.781776345244 0.00181294308147 3.5895738323e-05)
(0.791782504642 0.000239270951832 -0.00170361127979)
(0.792835038473 0.00241034608231 -0.00254927312646)
(0.793901938257 0.00534478953794 -0.00411419426617)
(0.781181185207 0.00399661286728 -0.0018258399118)
(0.782527446997 0.00381542754851 -0.00217038921622)
(0.79235942356 0.00366173565536 -0.0031967764492)
(0.794052261706 0.00392152876901 -0.00439221466034)
(0.781969894116 0.00352963861714 -0.000777798983686)
(0.791502206803 0.00671837895956 -0.00252388448828)
(0.793808510462 0.007438036633 -0.00439929578864)
(0.780695642137 0.00470663015036 -0.00229358024)
(0.78144054248 0.00794838978572 -0.00285215957443)
(0.792054581556 0.00467977702204 -0.0030436630879)
(0.79353672667 0.0092786324438 -0.00244854340052)
(0.780687247304 0.00559368087882 -0.00260819592464)
(0.797235275877 0.00793742750636 -0.00711781516543)
(0.795582044741 0.00751410625849 -0.00598550057699)
(0.78321110062 0.00517174322187 -0.00432802720602)
(0.784149708998 0.00577999534535 -0.00571721128099)
(0.795622604021 0.00577674116994 -0.0061217799448)
(0.797588469596 0.00965712491431 -0.00652544123501)
(0.784181205545 0.00387359360024 -0.00542734336801)
(0.798746635656 0.0098371464791 -0.00641484897803)
(0.800499717636 0.0120465033598 -0.00431169495882)
(0.78547666525 0.00541703271801 -0.00508338066922)
(0.787116585851 0.00179517996457 -0.00549304148934)
(0.799254156621 0.0112632786531 -0.00537330653542)
(0.80002990486 0.011245128869 -0.00597032821215)
(0.785918873767 0.0037994898612 -0.00555173731963)
(0.797375363601 0.013152254646 -0.00264407529932)
(0.795859759878 0.00965292793842 -0.00519038217625)
(0.78220809275 0.00922461562633 -0.00292850867885)
(0.784068625091 0.0070933683284 -0.00457796743925)
(0.795593648761 0.01147875003 -0.00297913778414)
(0.797722129124 0.0115275884969 -0.00539923364309)
(0.782721350497 0.00862382341217 -0.0028774499321)
(0.796943826646 0.0149385399225 -0.00188806109631)
(0.794674574422 0.015719261385 0.000115738408693)
(0.78206670776 0.00973933613444 -0.00228422819956)
(0.78217057146 0.0103564379453 -0.000793439445633)
(0.794970760368 0.0135135076629 -0.00173198982634)
(0.796814979014 0.0169130886237 -0.000167364268342)
(0.782489543319 0.00935080768809 -0.00202005125931)
(0.798975730654 0.0140688286016 -0.00117943076476)
(0.800559282346 0.0137488417598 -0.00351313546549)
(0.785362752435 0.00689468182133 -0.00423187648144)
(0.784515455933 0.00607554823165 -0.00122924427425)
(0.799222546294 0.0128162023507 -0.00435986703815)
(0.800499914898 0.0146635840742 -0.000427493168275)
(0.78371550474 0.00818239917299 -0.00203680422872)
(0.798737117691 0.0158907144861 -0.00054835047226)
(0.800453006561 0.0177386804336 0.00202629931763)
(0.782912821803 0.00967770702781 -0.000565488148748)
(0.783598912784 0.00717338205141 0.000538222867006)
(0.798866177035 0.0176308324711 0.000415723222379)
(0.800427499465 0.0164086960286 0.00102753449797)
(0.783012432649 0.00891263429127 -0.00147713638083)
(0.798116734634 0.0213661217129 0.0035022508645)
(0.794802920711 0.0181126251139 0.00167789523356)
(0.783729813023 0.0118508148581 0.000339241989726)
(0.782336107683 0.0114362670727 0.0012835184114)
(0.795683451189 0.0206951826064 0.00251863263343)
(0.797150235695 0.0192149794595 0.00199708380474)
(0.784278505002 0.0120944486013 0.00228606706114)
(0.799328198238 0.0235166895434 0.00421042042463)
(0.800164859469 0.0247322213858 0.00455490351328)
(0.785833947931 0.0124920312841 0.000102955267782)
(0.788633066121 0.0127159145781 0.00188212897629)
(0.797392493254 0.0229678402962 0.00290814115881)
(0.785949464979 0.0124741659831 0.0024125526192)
(0.801368602447 0.0250186363327 0.00514652370948)
(0.800017938303 0.0213944182855 0.00326923236031)
(0.800881725397 0.0193789781053 0.00345173879388)
(0.783354056493 0.0108771492963 0.00129684575026)
(0.784872548941 0.0101820849115 0.00379861167526)
(0.799235515814 0.0196186217344 0.0025412645395)
(0.801682218135 0.0206808297307 0.00447166951315)
(0.784483312822 0.0113590790621 0.00209602305878)
(0.801081462881 0.0231643132337 0.00418380455081)
(0.803435771944 0.0230480032775 0.0061862713066)
(0.788901849961 0.0121231391383 0.00256792206846)
(0.786459665992 0.0107214428159 0.00516791009146)
(0.802450060674 0.02203820661 0.00572431371213)
(0.78628406432 0.0118227581017 0.00264473493002)
(0.802577919592 0.0244822009264 0.00457469576206)
(0.802710583272 0.0130286306722 0.00302693032137)
(0.801830553635 0.0137541254576 -0.000630350553668)
(0.785530900213 0.00525316195552 0.000869327021991)
(0.787634706269 0.00409201777743 0.00103151237423)
(0.801713299311 0.0144381588245 0.00175492092913)
(0.802732881445 0.01247754456 0.00117770494275)
(0.786377586399 0.00459159759051 0.00190129247046)
(0.80281107187 0.0141020515055 0.00401508693092)
(0.801563527641 0.0168594777177 0.00320871565354)
(0.784410077126 0.00614026199597 0.00209410933133)
(0.785555332606 0.00686961045224 0.00416695818579)
(0.801721467824 0.0158367810451 0.00294280110538)
(0.802599706265 0.0150181553948 0.00508784717928)
(0.785309595923 0.00560168126992 0.00357991319373)
(0.803680451192 0.0122298855368 0.00489678217002)
(0.803846752153 0.010527869524 0.00541363978314)
(0.786496233587 0.0065133674163 0.00461665454589)
(0.786794638995 0.00645907714321 0.00402355905087)
(0.803327381621 0.0127566833098 0.00560768788261)
(0.804011240619 0.0101905011101 0.00481688059772)
(0.786243267078 0.00588831842976 0.00419341551368)
(0.803297169 0.0162892821073 0.00633404091776)
(0.802165602315 0.0180258733599 0.00427422740433)
(0.78549719974 0.00910580219953 0.00433464464372)
(0.785371745218 0.00784972854401 0.0050947493078)
(0.802608230269 0.0189008958957 0.00508677118978)
(0.802904705831 0.0158310856232 0.00567123089708)
(0.785998632288 0.00877471434446 0.00581444284973)
(0.803903351388 0.0171622987687 0.00738245247656)
(0.804055009004 0.0205637366302 0.00681997825757)
(0.786737680661 0.00946191052257 0.00544250473559)
(0.789146739125 0.00993735638858 0.0076375375631)
(0.803221769941 0.0198698609293 0.00629894343459)
(0.787374933832 0.00941047134885 0.00698148963643)
(0.804558332885 0.0175299754384 0.00808540581538)
(0.803895428019 0.01374005954 0.0065751637206)
(0.803964450598 0.011042990139 0.00579427122463)
(0.786450997903 0.00736923094308 0.00522398499115)
(0.787574796514 0.00852055188538 0.00511815802259)
(0.803597444934 0.0133922925177 0.00610439767508)
(0.804255229184 0.0114093831839 0.00607235533635)
(0.786896990911 0.00839989313102 0.00579027786588)
(0.804364951713 0.0141524035383 0.00772472735298)
(0.8048515385 0.011748964874 0.00733658004205)
(0.789463130166 0.00975537780946 0.00760347632136)
(0.788520867216 0.00936796015998 0.00605149191474)
(0.804452812959 0.0115785250548 0.00685926351313)
(0.788098691801 0.00916038664557 0.00709558077709)
(0.804764745419 0.0144287156118 0.00842650082362)
(0.80477295183 0.00750581646924 0.00433423787449)
(0.804383034113 0.00897877972453 0.00515704387869)
(0.788383545643 0.00871698720477 0.00465632401096)
(0.788327045001 0.00882829676586 0.00328649749874)
(0.80454439981 0.00935938602517 0.0052877997372)
(0.804745798502 0.00719589953873 0.00383460513137)
(0.788907962832 0.0094305127768 0.00347151830931)
(0.805046593067 0.00954722186972 0.00576866203625)
(0.789335065073 0.00940396354816 0.00504254041166)
(0.804746905794 0.00949281970514 0.00565784453179)
(0.813694181104 0.0015163046031 -0.000659000849068)
(0.815116882435 -0.00117192764699 -0.000545365444378)
(0.81464074558 -0.00346349101683 -0.000618825001689)
(0.811402005076 -0.00420233905438 -1.39700341833e-05)
(0.807640189447 -0.00439913324701 -3.42060903082e-05)
(0.813112277358 -0.0290651376537 -4.93218161437e-05)
(0.813907475981 0.00148511141308 -0.00182097371998)
(0.815158287733 -0.000866423444032 -0.00177122608745)
(0.815000602608 -0.00307312573794 -0.00125076345444)
(0.811833101035 -0.00405033664038 0.000753889180281)
(0.80762589562 -0.00450748649071 0.00171587158059)
(0.813437193223 -0.0297883958524 0.00217820689493)
(0.814480754537 0.00574966487551 -0.000590181806423)
(0.812631162974 0.00572023395259 -0.000551027068447)
(0.793716177813 0.00726056526342 0.00310420291021)
(0.79129876885 0.00656138454547 0.00450923856785)
(0.78864721579 0.00317631083872 0.009554093157)
(0.786105133664 -0.00225603576861 0.0130406416913)
(0.789010848526 -0.002869821586 0.0124870707549)
(0.765978019747 -0.0200845097545 0.0143579255438)
(0.824788248407 0.00473714143466 0.000235520409187)
(0.822568632492 0.00215408956286 0.000124432799291)
(0.820325576032 -0.00245061965891 -0.00132323086813)
(0.818865033909 -0.0105631492799 -0.00149181279173)
(0.817221280624 -0.0151335361059 0.0010233449288)
(0.811077063437 -0.0174417136971 0.00371699568068)
(0.806793818129 -0.0119974562349 0.00345198878017)
(0.799448001483 -0.0437114357911 0.00477179418921)
(0.818365334228 0.00394875258628 -0.000646767653995)
(0.820287157575 0.00260706083992 -0.00110935186342)
(0.820832917487 -0.000620935402931 -0.00155399129407)
(0.819465699305 -0.00570402673838 -0.00136267359511)
(0.817160924846 -0.00772811046767 1.93352937885e-05)
(0.813729643159 -0.0096845799256 0.00124232887406)
(0.80736636484 -0.00760469109867 0.00184442415294)
(0.805389431195 -0.0374686654776 0.00243710103156)
(0.813758384971 0.00414858611765 -0.000171284133919)
(0.816542762639 0.000909666600818 -0.000735570484572)
(0.818141570464 -0.0018398560385 -0.00105666333902)
(0.816939589537 -0.00466721900019 -0.000959887930027)
(0.814770416385 -0.00674110550245 -0.000423038903218)
(0.812641790519 -0.00891663543644 0.000252950986359)
(0.807668012717 -0.00819466332735 0.000572723353773)
(0.809540890126 -0.0408760872973 0.000779163994123)
(0.813280323237 -0.00469573394715 -0.000407073599966)
(0.812071043394 -0.00579468314361 -0.000209991533251)
(0.807993373624 -0.00562535061747 -0.000115458481128)
(0.812485101519 -0.0334057112629 -7.69703717798e-05)
(0.636951196167 0.0412474271679 0.00954685428583)
(0.636368234358 0.0401126726024 0.0116904232067)
(0.65141142305 0.02280610425 0.0177147263376)
(0.654279599835 0.0181286831063 0.0232074887089)
(0.671004487373 0.0118923757794 0.0284655408924)
(0.688238657182 -0.00155204165993 0.0280229210682)
(0.742160299616 -0.00386169021399 0.0188098702879)
(0.701661987866 -0.0322031290703 0.0187792075702)
(0.77197891994 0.0128547311946 0.00724858349919)
(0.769486316916 0.00730266684107 0.00686286426194)
(0.778555725576 -0.000168525238691 0.009619799682)
(0.780280876252 -0.00708453723543 0.0131155074345)
(0.788447163163 -0.0171810451163 0.0161872920541)
(0.792573902478 -0.0215588850829 0.0144130539153)
(0.796620201664 -0.0182194320816 0.011991696497)
(0.787773160424 -0.0668147012604 0.0123447329674)
(0.819146745365 0.00398263132649 0.000355388439011)
(0.8193898739 0.00337142457025 -0.000812035459064)
(0.819967273269 0.00180550298333 -0.00158208666301)
(0.820222488452 -0.00276392927509 -0.00142287935726)
(0.819149904806 -0.00716535503687 0.000996199900675)
(0.815212123051 -0.0114305831249 0.00211299434556)
(0.809208071203 -0.00951658002509 0.00399349742269)
(0.80822855993 -0.0458140398528 0.00524008517417)
(0.81386633067 0.00447440955554 -0.000341532635483)
(0.816171477264 0.000582521237221 -0.00137136281792)
(0.817748181017 -0.00233471286746 -0.00191994593567)
(0.81760586954 -0.00450959618721 -0.00153844250919)
(0.815685161517 -0.00657840148371 0.000669145077251)
(0.813671386832 -0.00834430680399 0.00150866802354)
(0.808231668551 -0.00814719616996 0.00286956686212)
(0.810762940379 -0.0432944919176 0.00363969572823)
(0.813633917443 -0.00465369308457 3.0400876874e-05)
(0.81240317872 -0.00608844182105 0.000856008799494)
(0.808055503689 -0.00618286046526 0.00191842074356)
(0.81349060106 -0.0360116483423 0.00250399426472)
(0.632887247722 -0.0155065731841 0.0181113898243)
(0.626663093639 -0.0165896523114 0.0167716670768)
(0.638348156269 -0.022723908081 0.0187927059001)
(0.645616318688 -0.0261539585697 0.0221455016037)
(0.664167408386 -0.029272482443 0.0226710797131)
(0.681324704487 -0.0321427245471 0.0117574575677)
(0.73851672549 -0.0191750488294 0.00433586201518)
(0.703559774379 -0.0506090163095 -0.00439632847139)
(0.733065298676 0.0042336460541 0.022206025789)
(0.73154897203 -0.00197646722786 0.0197284972596)
(0.784174713848 -0.00118908999161 0.00359159762733)
(0.78784932439 -0.00821839408888 0.00468225154076)
(0.793335785209 -0.0170955988351 0.00755649328823)
(0.793597029205 -0.0207827471802 0.00628651749487)
(0.796843714049 -0.0178713357858 0.00345364264812)
(0.792396557093 -0.0700475535988 -0.000399699111565)
(0.818713968073 0.00276533148133 0.000428138685522)
(0.818228261881 0.00189628885225 -0.00298279689434)
(0.819738592342 -0.000389995215962 -0.00484083940024)
(0.822733188069 -0.00664057558647 -0.00347130724881)
(0.821292938999 -0.0114704867603 -0.000168421972689)
(0.81682398467 -0.0147675374003 -0.000360142297006)
(0.810512966887 -0.0116353010219 -0.00181627359853)
(0.815100970397 -0.0523735195724 -0.00296773964716)
(0.809641273938 0.00764355818743 0.000419437600672)
(0.813108505821 0.00331917379393 -0.000811855570929)
(0.815293994068 -0.000315099314578 -0.00283276220799)
(0.818088777808 -0.00178954280884 -0.0048403612639)
(0.819321166185 -0.00523886673864 -0.00329120239564)
(0.817669186335 -0.00740478972724 -0.000283996274509)
(0.815122718227 -0.00966602499149 0.000725183131257)