/*--------------------------------*- C++ -*----------------------------------*\
| =========                 |                                                 |
| \\      /  F ield         | OpenFOAM: The Open Source CFD Toolbox           |
|  \\    /   O peration     | Version:  v1906                                 |
|   \\  /    A nd           | Web:      www.OpenFOAM.com                      |
|    \\/     M anipulation  |                                                 |
\*---------------------------------------------------------------------------*/
FoamFile
{
    version     2.0;
    format      ascii;
    class       volVectorField;
    location    "2.1";
    object      force.turbine;
}
// * * * * * * * * * * * * * * * * * * * * * * * * * * * * * * * * * * * * * //

dimensions      [1 -2 -2 0 0 0 0];


internalField   nonuniform List<vector> 
28582
(
(0 0 0)
(0 0 0)
(0 0 0)
(0 0 0)
(0 0 0)
(0 0 0)
(0 0 0)
(0 0 0)
(0 0 0)
(0 0 0)
(0 0 0)
(0 0 0)
(0 0 0)
(0 0 0)
(0 0 0)
(0 0 0)
(0 0 0)
(0 0 0)
(0 0 0)
(0 0 0)
(0 0 0)
(0 0 0)
(0 0 0)
(0 0 0)
(0 0 0)
(0 0 0)
(0 0 0)
(0 0 0)
(0 0 0)
(0 0 0)
(0 0 0)
(0 0 0)
(0 0 0)
(0 0 0)
(0 0 0)
(0 0 0)
(0 0 0)
(0 0 0)
(0 0 0)
(0 0 0)
(0 0 0)
(0 0 0)
(0 0 0)
(0 0 0)
(0 0 0)
(0 0 0)
(0 0 0)
(0 0 0)
(0 0 0)
(0 0 0)
(0 0 0)
(0 0 0)
(0 0 0)
(0 0 0)
(0 0 0)
(0 0 0)
(0 0 0)
(0 0 0)
(0 0 0)
(0 0 0)
(0 0 0)
(0 0 0)
(0 0 0)
(0 0 0)
(0 0 0)
(0 0 0)
(0 0 0)
(0 0 0)
(0 0 0)
(0 0 0)
(0 0 0)
(0 0 0)
(0 0 0)
(0 0 0)
(0 0 0)
(0 0 0)
(0 0 0)
(0 0 0)
(0 0 0)
(0 0 0)
(0 0 0)
(0 0 0)
(0 0 0)
(0 0 0)
(0 0 0)
(0 0 0)
(0 0 0)
(0 0 0)
(0 0 0)
(0 0 0)
(0 0 0)
(0 0 0)
(0 0 0)
(0 0 0)
(0 0 0)
(0 0 0)
(0 0 0)
(0 0 0)
(0 0 0)
(0 0 0)
(0 0 0)
(0 0 0)
(0 0 0)
(0 0 0)
(0 0 0)
(0 0 0)
(0 0 0)
(0 0 0)
(0 0 0)
(0 0 0)
(0 0 0)
(0 0 0)
(0 0 0)
(0 0 0)
(0 0 0)
(0 0 0)
(0 0 0)
(0 0 0)
(0 0 0)
(0 0 0)
(0 0 0)
(0 0 0)
(0 0 0)
(0 0 0)
(0 0 0)
(0 0 0)
(0 0 0)
(0 0 0)
(0 0 0)
(0 0 0)
(0 0 0)
(0 0 0)
(0 0 0)
(0 0 0)
(0 0 0)
(0 0 0)
(0 0 0)
(0 0 0)
(0 0 0)
(0 0 0)
(0 0 0)
(0 0 0)
(0 0 0)
(0 0 0)
(0 0 0)
(0 0 0)
(0 0 0)
(0 0 0)
(0 0 0)
(0 0 0)
(0 0 0)
(0 0 0)
(0 0 0)
(0 0 0)
(0 0 0)
(0 0 0)
(0 0 0)
(0 0 0)
(0 0 0)
(0 0 0)
(0 0 0)
(0 0 0)
(0 0 0)
(0 0 0)
(0 0 0)
(0 0 0)
(0 0 0)
(0 0 0)
(0 0 0)
(0 0 0)
(0 0 0)
(0 0 0)
(0 0 0)
(0 0 0)
(0 0 0)
(0 0 0)
(0 0 0)
(0 0 0)
(0 0 0)
(0 0 0)
(0 0 0)
(0 0 0)
(0 0 0)
(0 0 0)
(0 0 0)
(0 0 0)
(0 0 0)
(0 0 0)
(0 0 0)
(0 0 0)
(0 0 0)
(0 0 0)
(0 0 0)
(0 0 0)
(0 0 0)
(0 0 0)
(0 0 0)
(0 0 0)
(0 0 0)
(0 0 0)
(0 0 0)
(0 0 0)
(0 0 0)
(0 0 0)
(0 0 0)
(0 0 0)
(0 0 0)
(0 0 0)
(0 0 0)
(0 0 0)
(0 0 0)
(0 0 0)
(0 0 0)
(0 0 0)
(0 0 0)
(0 0 0)
(0 0 0)
(-0.000757228782144 1.19160142858e-05 0)
(0 0 0)
(0 0 0)
(0 0 0)
(0 0 0)
(-2.55639088889e-05 1.67038672753e-07 0)
(0 0 0)
(-2.58488412218e-06 1.2833720157e-08 0)
(0 0 0)
(0 0 0)
(0 0 0)
(0 0 0)
(0 0 0)
(0 0 0)
(0 0 0)
(0 0 0)
(0 0 0)
(0 0 0)
(0 0 0)
(0 0 0)
(-0.0383433965581 -0.00247009840881 0.00329440833757)
(0 0 0)
(0 0 0)
(0 0 0)
(-0.0320656356561 0.00063270436457 0)
(0 0 0)
(0 0 0)
(-0.244954843999 -0.0312283549074 0.0358476944562)
(-1.99873320664 -0.283797379337 0.32150622195)
(-0.0871402513581 0.00171941133353 0)
(-1.57893191338 -0.0998554701389 0.129882375797)
(-0.00641338503481 5.17392457188e-05 0)
(-0.0850716795887 0.00167859522744 0)
(0 0 0)
(0 0 0)
(0 0 0)
(0 0 0)
(0 0 0)
(-0.0167841601291 0.000475996099324 0)
(0 0 0)
(0 0 0)
(0 0 0)
(-0.0312333151864 0.000616281400137 0)
(0 0 0)
(0 0 0)
(0 0 0)
(0 0 0)
(0 0 0)
(0 0 0)
(0 0 0)
(0 0 0)
(-1.49665058712e-05 1.07570995907e-07 0)
(0 0 0)
(-9.07939601869e-06 6.5257694773e-08 0)
(-0.00012657445681 1.50095159687e-06 0)
(-0.000569888965953 6.7578860304e-06 0)
(-7.68453031657e-05 9.11250843218e-07 0)
(-0.000346578456375 4.10981410187e-06 0)
(0 0 0)
(0 0 0)
(-7.37725839189e-05 5.66695632706e-07 0)
(0 0 0)
(0 0 0)
(0 0 0)
(0 0 0)
(0 0 0)
(0 0 0)
(-0.00399539690949 6.28729490661e-05 0)
(-0.000170327660793 2.15868600419e-06 0)
(-0.000940367850882 1.47979540785e-05 0)
(-2.76570334272e-05 2.86963179366e-07 0)
(-0.000127821111512 1.51573474042e-06 0)
(-3.56835067584e-06 1.77165442747e-08 0)
(-2.79045890174e-05 2.8953176068e-07 0)
(0 0 0)
(0 0 0)
(0 0 0)
(0 0 0)
(0 0 0)
(-0.000107623238722 8.26724727823e-07 0)
(0 0 0)
(0 0 0)
(0 0 0)
(0 0 0)
(0 0 0)
(0 0 0)
(0 0 0)
(0 0 0)
(0 0 0)
(0 0 0)
(0 0 0)
(0 0 0)
(0 0 0)
(0 0 0)
(0 0 0)
(0 0 0)
(0 0 0)
(0 0 0)
(0 0 0)
(0 0 0)
(-0.00537313283695 4.47327653952e-05 0)
(0 0 0)
(0 0 0)
(0 0 0)
(0 0 0)
(0 0 0)
(-0.00506078838476 4.08273279007e-05 0)
(0 0 0)
(0 0 0)
(0 0 0)
(0 0 0)
(0 0 0)
(0 0 0)
(0 0 0)
(0 0 0)
(0 0 0)
(0 0 0)
(0 0 0)
(0 0 0)
(0 0 0)
(0 0 0)
(0 0 0)
(0 0 0)
(0 0 0)
(0 0 0)
(0 0 0)
(0 0 0)
(0 0 0)
(0 0 0)
(-0.0377051283832 0.000864237722103 0)
(-0.00944331132518 0.000139620614786 0)
(-0.0155488179301 0.000229891342543 0)
(-0.0106713757779 0.000174475657578 0)
(-0.0201819015799 0.000462588549543 0)
(0 0 0)
(0 0 0)
(0 0 0)
(0 0 0)
(0 0 0)
(0 0 0)
(0 0 0)
(0 0 0)
(0 0 0)
(0 0 0)
(-0.00570384822783 4.60151391817e-05 0)
(0 0 0)
(-0.0083107759084 0.000135880145333 0)
(0 0 0)
(0 0 0)
(-0.682722342349 -0.0805166615453 0.0935033888069)
(-0.391783986047 -0.0413120189841 0.0488966963933)
(-0.339640361434 -0.0144214424516 0.0208209017791)
(-0.0464760130945 0.000917043299813 0)
(-1.70585963564 -0.222770541202 0.255586542095)
(-0.148227130883 -0.0124100443072 0.015283374667)
(-0.137787683818 -0.00145376357361 0.00407465554875)
(-1.83198053856 -0.232138394926 0.266924226564)
(-7.57411899656 -1.01480696546 1.16040755231)
(-0.897293616404 -0.0601742921929 0.0771496976973)
(-0.717929857929 -0.0315046690679 0.045078577559)
(-4.51582517736 -0.615473434322 0.701954463884)
(-0.38354892547 -0.0165357069732 0.0237436821041)
(-3.09884074115 -0.384351056745 0.443506160153)
(-0.172495830236 -0.0143263656606 0.0176579875274)
(-0.0094172936859 0.000153971572424 0)
(-0.0219162107317 0.000432440583231 0)
(-0.0218809729929 0.000431745288387 0)
(-0.0259139397339 0.000593972364151 0)
(-0.0259142249006 0.000593978900445 0)
(-0.0522781770273 0.00103152892809 0)
(-0.490093721069 -0.0500341043279 0.0594168714175)
(-0.168044547541 -0.00640532773669 0.00986291327297)
(-0.243240632708 -0.000335071465542 0.00501763932403)
(-0.0460499552332 0.000908636522187 0)
(-0.0795778609294 -0.0020971518756 0.00375121812679)
(-0.115905130185 0.00150494048618 0.000750561537111)
(-0.858571508137 -0.0856507448683 0.10225486912)
(0 0 0)
(0 0 0)
(0 0 0)
(0 0 0)
(0 0 0)
(0 0 0)
(0 0 0)
(0 0 0)
(0 0 0)
(0 0 0)
(0 0 0)
(0 0 0)
(0 0 0)
(0 0 0)
(0 0 0)
(0 0 0)
(0 0 0)
(0 0 0)
(0 0 0)
(0 0 0)
(0 0 0)
(0 0 0)
(0 0 0)
(-0.00565821465632 4.5646995595e-05 0)
(0 0 0)
(-0.00831070868233 0.000135879046195 0)
(0 0 0)
(0 0 0)
(0 0 0)
(-0.0377037403215 0.000864205906399 0)
(-0.0153237133043 0.00022656314069 0)
(-0.00925544265588 0.000136842951506 0)
(-0.0201820112467 0.000462591063213 0)
(0 0 0)
(-0.0106710029083 0.000174469561207 0)
(0 0 0)
(0 0 0)
(0 0 0)
(0 0 0)
(0 0 0)
(0 0 0)
(0 0 0)
(0 0 0)
(0 0 0)
(0 0 0)
(0 0 0)
(0 0 0)
(0 0 0)
(0 0 0)
(0 0 0)
(0 0 0)
(0 0 0)
(0 0 0)
(0 0 0)
(0 0 0)
(0 0 0)
(0 0 0)
(0 0 0)
(0 0 0)
(0 0 0)
(0 0 0)
(0 0 0)
(0 0 0)
(0 0 0)
(0 0 0)
(0 0 0)
(0 0 0)
(0 0 0)
(0 0 0)
(0 0 0)
(0 0 0)
(-0.015479069751 0.000328052333238 0)
(0 0 0)
(0 0 0)
(0 0 0)
(0 0 0)
(0 0 0)
(0 0 0)
(0 0 0)
(-0.00345393676471 7.32002654389e-05 0)
(0 0 0)
(0 0 0)
(0 0 0)
(0 0 0)
(0 0 0)
(0 0 0)
(0 0 0)
(0 0 0)
(0 0 0)
(0 0 0)
(0 0 0)
(0 0 0)
(0 0 0)
(0 0 0)
(0 0 0)
(0 0 0)
(0 0 0)
(0 0 0)
(0 0 0)
(0 0 0)
(0 0 0)
(0 0 0)
(0 0 0)
(0 0 0)
(0 0 0)
(0 0 0)
(0 0 0)
(-0.333116187345 0.00949148229601 0)
(-0.00794718042646 0.000168426857912 0)
(0 0 0)
(0 0 0)
(0 0 0)
(0 0 0)
(0 0 0)
(0 0 0)
(-0.073145409978 0.00210482462951 0)
(0 0 0)
(0 0 0)
(0 0 0)
(0 0 0)
(0 0 0)
(0 0 0)
(0 0 0)
(0 0 0)
(0 0 0)
(0 0 0)
(0 0 0)
(0 0 0)
(0 0 0)
(0 0 0)
(0 0 0)
(0 0 0)
(0 0 0)
(0 0 0)
(0 0 0)
(0 0 0)
(0 0 0)
(0 0 0)
(0 0 0)
(0 0 0)
(0 0 0)
(0 0 0)
(0 0 0)
(-1.57895568142 0.0559187173064 0)
(-0.0450720416049 0.00163206187969 0)
(0 0 0)
(0 0 0)
(0 0 0)
(0 0 0)
(0 0 0)
(0 0 0)
(-0.34640947698 0.0121254065382 0)
(-0.00684972215974 0.000273662515015 0)
(0 0 0)
(0 0 0)
(0 0 0)
(0 0 0)
(0 0 0)
(0 0 0)
(0 0 0)
(0 0 0)
(0 0 0)
(0 0 0)
(0 0 0)
(0 0 0)
(0 0 0)
(0 0 0)
(0 0 0)
(0 0 0)
(0 0 0)
(0 0 0)
(0 0 0)
(0 0 0)
(0 0 0)
(0 0 0)
(0 0 0)
(0 0 0)
(0 0 0)
(0 0 0)
(0 0 0)
(0 0 0)
(0 0 0)
(0 0 0)
(0 0 0)
(0 0 0)
(0 0 0)
(-2.67954703706 0.0746400714192 0)
(-0.0809158944634 0.00225395115599 0)
(0 0 0)
(0 0 0)
(0 0 0)
(0 0 0)
(0 0 0)
(0 0 0)
(-2.70111799665 0.0716942977831 0.00329441366132)
(-0.597889862919 0.0166545096809 0)
(-0.0167841898087 0.000475996941034 0)
(0 0 0)
(0 0 0)
(0 0 0)
(0 0 0)
(0 0 0)
(0 0 0)
(-0.0490780493168 0.00136709266733 0)
(-0.0809161737619 0.00225395893598 0)
(-0.016784219329 0.000475997778223 0)
(0 0 0)
(0 0 0)
(0 0 0)
(0 0 0)
(0 0 0)
(0 0 0)
(0 0 0)
(0 0 0)
(0 0 0)
(0 0 0)
(0 0 0)
(0 0 0)
(0 0 0)
(0 0 0)
(0 0 0)
(0 0 0)
(0 0 0)
(0 0 0)
(0 0 0)
(0 0 0)
(0 0 0)
(0 0 0)
(0 0 0)
(0 0 0)
(0 0 0)
(0 0 0)
(-0.0282909297208 0.000446072253357 0)
(-0.000892807203109 1.40495232585e-05 0)
(0 0 0)
(0 0 0)
(0 0 0)
(0 0 0)
(0 0 0)
(0 0 0)
(-0.0130492007664 0.000205750975589 0)
(-0.0262960377971 0.000414618146179 0)
(-0.00630635470044 9.92389809713e-05 0)
(-0.000155952538787 1.19797379928e-06 0)
(0 0 0)
(0 0 0)
(0 0 0)
(0 0 0)
(0 0 0)
(0 0 0)
(-0.000396149556881 5.02069070883e-06 0)
(-0.000795564536074 1.25192789824e-05 0)
(-0.000145058566646 1.11429004975e-06 0)
(0 0 0)
(0 0 0)
(0 0 0)
(0 0 0)
(0 0 0)
(0 0 0)
(0 0 0)
(0 0 0)
(0 0 0)
(0 0 0)
(0 0 0)
(0 0 0)
(0 0 0)
(0 0 0)
(0 0 0)
(0 0 0)
(0 0 0)
(0 0 0)
(0 0 0)
(0 0 0)
(0 0 0)
(0 0 0)
(0 0 0)
(0 0 0)
(0 0 0)
(0 0 0)
(-0.000198135013947 1.58802265342e-06 0)
(-0.000198122150454 1.58791955444e-06 0)
(-2.55689557061e-05 1.67071649464e-07 0)
(0 0 0)
(0 0 0)
(0 0 0)
(0 0 0)
(0 0 0)
(0 0 0)
(0 0 0)
(-2.55664520141e-05 1.6705528994e-07 0)
(-2.55641410226e-05 1.67040189551e-07 0)
(-2.58482208276e-06 1.28334121367e-08 0)
(0 0 0)
(0 0 0)
(0 0 0)
(0 0 0)
(0 0 0)
(0 0 0)
(0 0 0)
(0 0 0)
(0 0 0)
(0 0 0)
(0 0 0)
(0 0 0)
(0 0 0)
(0 0 0)
(0 0 0)
(0 0 0)
(0 0 0)
(0 0 0)
(0 0 0)
(0 0 0)
(0 0 0)
(0 0 0)
(0 0 0)
(0 0 0)
(0 0 0)
(0 0 0)
(0 0 0)
(0 0 0)
(0 0 0)
(0 0 0)
(0 0 0)
(0 0 0)
(0 0 0)
(0 0 0)
(0 0 0)
(0 0 0)
(-0.00345375969758 7.31965128048e-05 0)
(-0.00938875074029 0.000198978468092 0)
(-0.00209491377576 4.43981042223e-05 0)
(-0.089473317065 0.0022454778925 0)
(-0.0182844187454 0.000387506893362 0)
(-0.0542723957932 0.00136205372645 0)
(-0.0110907166573 0.000235048716443 0)
(0 0 0)
(0 0 0)
(0 0 0)
(-0.00247470833471 5.24471984651e-05 0)
(0 0 0)
(0 0 0)
(0 0 0)
(0 0 0)
(0 0 0)
(0 0 0)
(-0.0182867019421 0.000387555281799 0)
(-0.00408031190256 8.64752121095e-05 0)
(-0.00408034038008 8.64758156418e-05 0)
(0 0 0)
(0 0 0)
(0 0 0)
(0 0 0)
(0 0 0)
(0 0 0)
(0 0 0)
(0 0 0)
(-0.0731408842717 0.00210469439826 0)
(-0.202056104882 0.00575718627657 0)
(-0.0443614920046 0.00127654163127 0)
(-0.833219071241 0.0269870026687 0)
(-0.183789720891 0.00601140180647 0)
(-0.505379931647 0.0163686718593 0)
(-0.111474302041 0.00364610609024 0)
(0 0 0)
(-0.00482009523524 0.000102153650949 0)
(0 0 0)
(-0.0236820098529 0.000800319360522 0)
(0 0 0)
(-0.0126599033334 0.00042009740034 0)
(0 0 0)
(-0.0154461266297 0.000436114319045 0)
(-0.0154471811524 0.00043614409301 0)
(-0.00292366727558 6.19621131499e-05 0)
(-0.183796750682 0.00601163173715 0)
(-0.0390430293709 0.00131943582884 0)
(-0.039045498677 0.00131951927757 0)
(-0.00767886266614 0.00025481002174 0)
(0 0 0)
(0 0 0)
(0 0 0)
(-0.00345383226496 7.31980507459e-05 0)
(0 0 0)
(0 0 0)
(0 0 0)
(-0.346396181935 0.0121249411704 0)
(-0.941579890306 0.0329582177072 0)
(-0.210104093542 0.00735429518771 0)
(-2.32533215104 0.0783643605533 0)
(-0.512924953549 0.0171328372369 0)
(-1.39425941557 0.0465713735853 0)
(-0.311109024858 0.0103917351826 0)
(0 0 0)
(-0.027337652034 0.000989898353305 0)
(0 0 0)
(-0.069417986515 0.00231871554707 0)
(0 0 0)
(-0.0421042534424 0.00140637595465 0)
(0 0 0)
(-0.0772969145344 0.00270563184659 0)
(-0.0772981378066 0.00270567466491 0)
(-0.0146120588172 0.000578418664866 0)
(-0.512929920295 0.0171330031372 0)
(-0.114450994843 0.00382291844583 0)
(-0.114451436788 0.00382293320777 0)
(-0.0255375836352 0.000853012240519 0)
(0 0 0)
(0 0 0)
(0 0 0)
(-0.0139562735208 0.000509766595914 0)
(0 0 0)
(0 0 0)
(0 0 0)
(-7.48031037571 0.214580483971 0)
(-4.44435774778 0.124640548139 0)
(-4.55404981944 0.0899620246391 0)
(-2.15767623036 0.0426233637959 0)
(-0.597891205938 0.0166545470913 0)
(-1.62521995012 0.0452712833441 0)
(-0.362637675034 0.0101014468451 0)
(-2.7741298476 0.0548009678412 0)
(-0.294330950527 0.00581429920032 0)
(-1.31234100683 0.0259243659319 0)
(-0.139009083473 0.00274602586451 0)
(0 0 0)
(-0.0490778625766 0.00136708746559 0)
(0 0 0)
(-0.106749223769 0.00210632655211 0)
(0 0 0)
(-0.0504315485696 0.000995092105276 0)
(0 0 0)
(0 0 0)
(0 0 0)
(0 0 0)
(0 0 0)
(0 0 0)
(0 0 0)
(0 0 0)
(0 0 0)
(0 0 0)
(0 0 0)
(0 0 0)
(0 0 0)
(0 0 0)
(0 0 0)
(0 0 0)
(0 0 0)
(0 0 0)
(0 0 0)
(0 0 0)
(0 0 0)
(0 0 0)
(0 0 0)
(0 0 0)
(0 0 0)
(0 0 0)
(0 0 0)
(0 0 0)
(0 0 0)
(0 0 0)
(0 0 0)
(0 0 0)
(0 0 0)
(0 0 0)
(0 0 0)
(0 0 0)
(0 0 0)
(0 0 0)
(0 0 0)
(0 0 0)
(0 0 0)
(0 0 0)
(0 0 0)
(-2.22796356155 -0.277412061466 0.321506225654)
(-0.813076560471 -0.0154031088374 0.0358477486963)
(-2.09781080443 -0.0885996692738 0.128885590869)
(-2.77820500212 0.0548814696287 0)
(-0.141616820483 0.00279753985985 0)
(-0.294860968614 0.00582476933176 0)
(-1.62523121593 0.0452715971589 0)
(-0.59788941456 0.0166544971916 0)
(-0.362638818171 0.0101014786877 0)
(-2.76567634544 0.0546339749009 0)
(-1.31083529431 0.0258946216489 0)
(-0.293794049037 0.00580369309213 0)
(-0.138934744182 0.00274455734454 0)
(-0.133407826346 0.00371613916407 0)
(-0.133407840459 0.00371613955719 0)
(-0.0297674048854 0.000829185379426 0)
(-0.796908818514 0.0157423685749 0)
(-0.0830223662106 0.00163815911906 0)
(-0.0830325855127 0.00163836076162 0)
(-0.00618683741503 4.99115988672e-05 0)
(0 0 0)
(0 0 0)
(0 0 0)
(-0.03059150548 0.000603617506404 0)
(0 0 0)
(0 0 0)
(0 0 0)
(0 0 0)
(0 0 0)
(0 0 0)
(0 0 0)
(0 0 0)
(0 0 0)
(0 0 0)
(0 0 0)
(0 0 0)
(0 0 0)
(0 0 0)
(0 0 0)
(0 0 0)
(0 0 0)
(0 0 0)
(0 0 0)
(0 0 0)
(0 0 0)
(0 0 0)
(0 0 0)
(0 0 0)
(0 0 0)
(0 0 0)
(0 0 0)
(0 0 0)
(0 0 0)
(0 0 0)
(0 0 0)
(0 0 0)
(0 0 0)
(0 0 0)
(0 0 0)
(0 0 0)
(0 0 0)
(0 0 0)
(0 0 0)
(0 0 0)
(0 0 0)
(0 0 0)
(0 0 0)
(0 0 0)
(0 0 0)
(-0.0809160522801 0.00225395555205 0)
(0 0 0)
(0 0 0)
(-0.0512245737992 0.00101073971412 0)
(-0.106990691349 0.00211109107927 0)
(0 0 0)
(0 0 0)
(-0.0490781808311 0.00136709633072 0)
(0 0 0)
(0 0 0)
(-0.106616823923 0.0021037140993 0)
(-0.0503949772252 0.00099437049634 0)
(0 0 0)
(0 0 0)
(0 0 0)
(0 0 0)
(0 0 0)
(-0.0305888295345 0.000603564705877 0)
(0 0 0)
(0 0 0)
(0 0 0)
(0 0 0)
(0 0 0)
(0 0 0)
(0 0 0)
(0 0 0)
(0 0 0)
(0 0 0)
(0 0 0)
(0 0 0)
(0 0 0)
(0 0 0)
(0 0 0)
(0 0 0)
(0 0 0)
(0 0 0)
(0 0 0)
(0 0 0)
(0 0 0)
(0 0 0)
(0 0 0)
(0 0 0)
(0 0 0)
(0 0 0)
(0 0 0)
(0 0 0)
(0 0 0)
(0 0 0)
(0 0 0)
(0 0 0)
(0 0 0)
(0 0 0)
(0 0 0)
(0 0 0)
(0 0 0)
(0 0 0)
(0 0 0)
(0 0 0)
(0 0 0)
(0 0 0)
(0 0 0)
(0 0 0)
(0 0 0)
(0 0 0)
(0 0 0)
(0 0 0)
(0 0 0)
(0 0 0)
(0 0 0)
(0 0 0)
(0 0 0)
(0 0 0)
(0 0 0)
(0 0 0)
(0 0 0)
(0 0 0)
(0 0 0)
(0 0 0)
(0 0 0)
(0 0 0)
(0 0 0)
(0 0 0)
(0 0 0)
(0 0 0)
(0 0 0)
(0 0 0)
(0 0 0)
(0 0 0)
(0 0 0)
(0 0 0)
(0 0 0)
(0 0 0)
(0 0 0)
(0 0 0)
(0 0 0)
(0 0 0)
(0 0 0)
(0 0 0)
(0 0 0)
(0 0 0)
(0 0 0)
(0 0 0)
(0 0 0)
(0 0 0)
(0 0 0)
(0 0 0)
(0 0 0)
(0 0 0)
(0 0 0)
(0 0 0)
(0 0 0)
(0 0 0)
(0 0 0)
(0 0 0)
(0 0 0)
(0 0 0)
(0 0 0)
(0 0 0)
(0 0 0)
(0 0 0)
(0 0 0)
(0 0 0)
(0 0 0)
(0 0 0)
(0 0 0)
(0 0 0)
(0 0 0)
(0 0 0)
(0 0 0)
(0 0 0)
(0 0 0)
(0 0 0)
(0 0 0)
(0 0 0)
(0 0 0)
(0 0 0)
(0 0 0)
(0 0 0)
(0 0 0)
(0 0 0)
(0 0 0)
(0 0 0)
(0 0 0)
(0 0 0)
(0 0 0)
(0 0 0)
(0 0 0)
(0 0 0)
(0 0 0)
(0 0 0)
(0 0 0)
(0 0 0)
(0 0 0)
(0 0 0)
(0 0 0)
(0 0 0)
(0 0 0)
(0 0 0)
(0 0 0)
(0 0 0)
(0 0 0)
(0 0 0)
(0 0 0)
(0 0 0)
(0 0 0)
(0 0 0)
(0 0 0)
(0 0 0)
(0 0 0)
(0 0 0)
(0 0 0)
(0 0 0)
(0 0 0)
(0 0 0)
(0 0 0)
(0 0 0)
(0 0 0)
(0 0 0)
(0 0 0)
(0 0 0)
(0 0 0)
(0 0 0)
(0 0 0)
(0 0 0)
(0 0 0)
(0 0 0)
(0 0 0)
(0 0 0)
(0 0 0)
(0 0 0)
(0 0 0)
(-0.00157432687155 1.86887494829e-05 0)
(-0.0025621143152 3.04147210141e-05 0)
(-0.00094708777722 1.12308039664e-05 0)
(-0.00154403270094 1.83291290155e-05 0)
(-0.0767698931863 0.0012104557744 0)
(-0.0457915918174 0.000722010861728 0)
(-0.00254717339296 3.02373581311e-05 0)
(-0.00154591644997 1.83514908988e-05 0)
(-0.00154379534791 1.83263114105e-05 0)
(-0.000935873739395 1.10978250984e-05 0)
(-0.00637260668992 0.000100281545216 0)
(-0.017117325425 0.000269894414894 0)
(-0.00390617205635 6.14688758854e-05 0)
(-0.000569248844788 6.75029531337e-06 0)
(-0.000126790761459 1.50351659154e-06 0)
(-0.000346181569645 4.10510771967e-06 0)
(-7.76646868597e-05 9.20967300195e-07 0)
(0 0 0)
(-0.000508891434957 6.44955031482e-06 0)
(0 0 0)
(-1.49674559717e-05 1.07577824705e-07 0)
(0 0 0)
(-9.15795633578e-06 6.58223430363e-08 0)
(0 0 0)
(0 0 0)
(0 0 0)
(0 0 0)
(0 0 0)
(0 0 0)
(0 0 0)
(0 0 0)
(0 0 0)
(0 0 0)
(0 0 0)
(0 0 0)
(0 0 0)
(0 0 0)
(0 0 0)
(0 0 0)
(0 0 0)
(0 0 0)
(0 0 0)
(0 0 0)
(0 0 0)
(0 0 0)
(0 0 0)
(0 0 0)
(0 0 0)
(0 0 0)
(0 0 0)
(0 0 0)
(0 0 0)
(0 0 0)
(0 0 0)
(0 0 0)
(0 0 0)
(0 0 0)
(0 0 0)
(0 0 0)
(0 0 0)
(0 0 0)
(0 0 0)
(0 0 0)
(0 0 0)
(0 0 0)
(0 0 0)
(-0.0244737372195 0.000385885342664 0)
(-0.00295925656589 4.65678858836e-05 0)
(-0.00548284820142 8.62799975858e-05 0)
(-0.000346989425492 4.11468747654e-06 0)
(-0.000567769572728 6.73275373494e-06 0)
(-7.79599738098e-05 9.24468886774e-07 0)
(-0.000127629838335 1.5134665752e-06 0)
(-0.0166284210588 0.000262185701377 0)
(-0.00581629118336 9.15271717951e-05 0)
(-0.00367016778033 5.77550308878e-05 0)
(-0.000567366216211 6.72797063239e-06 0)
(-0.000344274396673 4.0824919851e-06 0)
(-0.000126801051053 1.50363860812e-06 0)
(-7.67262982289e-05 9.09839652884e-07 0)
(-0.00141834406386 2.23195532522e-05 0)
(-0.00137312941744 2.16080399218e-05 0)
(-0.000293991220611 3.72596400568e-06 0)
(-0.000126980686275 1.50576876756e-06 0)
(-2.78031811143e-05 2.88479575008e-07 0)
(-2.75220437552e-05 2.85562556789e-07 0)
(-3.5354438167e-06 1.75531646409e-08 0)
(0 0 0)
(0 0 0)
(0 0 0)
(0 0 0)
(0 0 0)
(0 0 0)
(0 0 0)
(0 0 0)
(0 0 0)
(0 0 0)
(0 0 0)
(0 0 0)
(0 0 0)
(0 0 0)
(0 0 0)
(0 0 0)
(0 0 0)
(0 0 0)
(0 0 0)
(0 0 0)
(0 0 0)
(0 0 0)
(0 0 0)
(0 0 0)
(0 0 0)
(0 0 0)
(0 0 0)
(0 0 0)
(0 0 0)
(0 0 0)
(0 0 0)
(0 0 0)
(0 0 0)
(0 0 0)
(0 0 0)
(0 0 0)
(0 0 0)
(0 0 0)
(0 0 0)
(0 0 0)
(0 0 0)
(0 0 0)
(0 0 0)
(0 0 0)
(0 0 0)
(0 0 0)
(0 0 0)
(0 0 0)
(0 0 0)
(-0.000746155505226 1.17417613664e-05 0)
(0 0 0)
(0 0 0)
(-9.41988467285e-06 6.77049395699e-08 0)
(-1.52921829645e-05 1.09911783367e-07 0)
(0 0 0)
(0 0 0)
(-0.000465666723212 5.90173218684e-06 0)
(0 0 0)
(0 0 0)
(-1.50247399175e-05 1.07989550138e-07 0)
(-9.07916091489e-06 6.52560049764e-08 0)
(0 0 0)
(0 0 0)
(0 0 0)
(0 0 0)
(0 0 0)
(0 0 0)
(0 0 0)
(0 0 0)
(0 0 0)
(0 0 0)
(0 0 0)
(0 0 0)
(0 0 0)
(0 0 0)
(0 0 0)
(0 0 0)
(0 0 0)
(0 0 0)
(0 0 0)
(0 0 0)
(0 0 0)
(0 0 0)
(0 0 0)
(0 0 0)
(0 0 0)
(0 0 0)
(0 0 0)
(0 0 0)
(0 0 0)
(0 0 0)
(0 0 0)
(0 0 0)
(0 0 0)
(0 0 0)
(0 0 0)
(0 0 0)
(0 0 0)
(0 0 0)
(0 0 0)
(0 0 0)
(0 0 0)
(0 0 0)
(0 0 0)
(0 0 0)
(0 0 0)
(0 0 0)
(0 0 0)
(0 0 0)
(0 0 0)
(0 0 0)
(0 0 0)
(0 0 0)
(0 0 0)
(0 0 0)
(0 0 0)
(0 0 0)
(0 0 0)
(0 0 0)
(0 0 0)
(0 0 0)
(0 0 0)
(0 0 0)
(0 0 0)
(0 0 0)
(0 0 0)
(0 0 0)
(0 0 0)
(0 0 0)
(0 0 0)
(0 0 0)
(0 0 0)
(0 0 0)
(0 0 0)
(0 0 0)
(0 0 0)
(0 0 0)
(0 0 0)
(0 0 0)
(0 0 0)
(0 0 0)
(0 0 0)
(0 0 0)
(0 0 0)
(0 0 0)
(0 0 0)
(0 0 0)
(0 0 0)
(0 0 0)
(0 0 0)
(0 0 0)
(0 0 0)
(0 0 0)
(0 0 0)
(0 0 0)
(0 0 0)
(0 0 0)
(0 0 0)
(0 0 0)
(0 0 0)
(0 0 0)
(0 0 0)
(0 0 0)
(0 0 0)
(0 0 0)
(0 0 0)
(0 0 0)
(0 0 0)
(0 0 0)
(0 0 0)
(0 0 0)
(0 0 0)
(0 0 0)
(0 0 0)
(0 0 0)
(0 0 0)
(0 0 0)
(0 0 0)
(0 0 0)
(0 0 0)
(0 0 0)
(0 0 0)
(0 0 0)
(0 0 0)
(0 0 0)
(0 0 0)
(0 0 0)
(0 0 0)
(0 0 0)
(0 0 0)
(0 0 0)
(0 0 0)
(0 0 0)
(0 0 0)
(0 0 0)
(0 0 0)
(0 0 0)
(0 0 0)
(0 0 0)
(0 0 0)
(0 0 0)
(0 0 0)
(0 0 0)
(0 0 0)
(0 0 0)
(0 0 0)
(0 0 0)
(0 0 0)
(0 0 0)
(0 0 0)
(0 0 0)
(0 0 0)
(0 0 0)
(0 0 0)
(0 0 0)
(0 0 0)
(0 0 0)
(0 0 0)
(0 0 0)
(0 0 0)
(0 0 0)
(0 0 0)
(0 0 0)
(0 0 0)
(0 0 0)
(0 0 0)
(0 0 0)
(0 0 0)
(0 0 0)
(0 0 0)
(0 0 0)
(0 0 0)
(0 0 0)
(0 0 0)
(0 0 0)
(0 0 0)
(0 0 0)
(0 0 0)
(0 0 0)
(0 0 0)
(0 0 0)
(0 0 0)
(0 0 0)
(0 0 0)
(0 0 0)
(-7.41881930042 0.170299181933 0)
(-5.76455023128 0.131836996691 0)
(-6.64391855843 0.131245899529 0)
(-4.04451530244 0.0798965315966 0)
(-5.08735711702 0.116349386595 0)
(-5.83391718264 0.11524489677 0)
(-8.41582696685 0.193508845215 0)
(-5.76438465671 0.131833209951 0)
(-2.72293481131 0.0622743376859 0)
(-3.15333130557 0.0622918237294 0)
(-3.15335134685 0.0622922196305 0)
(-3.96204439538 0.0906131463666 0)
(-3.96192551036 0.0906104274304 0)
(-4.54830730265 0.0898485852923 0)
(-1.65159596722 0.0377724962625 0)
(-3.49628312591 0.0799610461197 0)
(-1.49178160528 0.0294690877024 0)
(-2.45357108786 0.0484685568695 0)
(-3.08564796017 0.0705696964367 0)
(-1.31344637382 0.025946201673 0)
(-1.87142593759 0.0428000737688 0)
(-0.780123901359 0.0178416681399 0)
(-0.368508236285 0.00842789414242 0)
(-0.705241093476 0.0139315376738 0)
(-0.259562852694 0.00512748008372 0)
(-0.325183069288 0.00743703454907 0)
(-0.621957784802 0.012286334972 0)
(-0.884003620365 0.0202174285412 0)
(-1.28624296215 0.0294167632065 0)
(-1.65155628386 0.0377715886921 0)
(-1.912524844 0.0377805720096 0)
(-0.705524308452 0.0139371323848 0)
(-2.40310152762 0.0549596543415 0)
(-0.884027464598 0.020217973866 0)
(-1.02357719977 0.0202200417028 0)
(-0.607558089439 0.0138950361457 0)
(-0.174076265242 0.00398117651577 0)
(-0.202335619117 0.0039969966676 0)
(-0.333327723754 0.00658465280051 0)
(-0.253263365894 0.0057922093124 0)
(-0.417587763849 0.00955035769178 0)
(-0.484693708306 0.00957478048284 0)
(-0.0376966758144 0.000864043981117 0)
(-0.135566836819 0.00310045431128 0)
(-0.0346609438192 0.000683913790754 0)
(-0.0940076965127 0.00185491660058 0)
(-0.119622464152 0.00273580171528 0)
(-0.0305463829116 0.000602727168652 0)
(-0.0427217753407 0.000979224084042 0)
(-0.0094153754914 0.000153940210184 0)
(0 0 0)
(-0.00900292448396 0.000133109436726 0)
(0 0 0)
(0 0 0)
(-0.00618391713397 4.98880398359e-05 0)
(-0.0106704058202 0.000174459798891 0)
(-0.0293605829794 0.000672972734529 0)
(-0.0640391041894 0.00146459356384 0)
(-0.073273849234 0.00144580586882 0)
(-0.0148443592218 0.000219475826781 0)
(-0.0931690334349 0.00213080380253 0)
(-0.0201807604344 0.000462562393395 0)
(-0.0238007976945 0.000469626385801 0)
(-0.00537234890697 4.47262389687e-05 0)
(0 0 0)
(0 0 0)
(0 0 0)
(0 0 0)
(0 0 0)
(-0.00481608858914 3.88532404595e-05 0)
(0 0 0)
(0 0 0)
(0 0 0)
(0 0 0)
(0 0 0)
(0 0 0)
(0 0 0)
(0 0 0)
(0 0 0)
(0 0 0)
(0 0 0)
(0 0 0)
(0 0 0)
(0 0 0)
(0 0 0)
(0 0 0)
(0 0 0)
(0 0 0)
(0 0 0)
(0 0 0)
(0 0 0)
(0 0 0)
(0 0 0)
(0 0 0)
(0 0 0)
(0 0 0)
(0 0 0)
(0 0 0)
(0 0 0)
(0 0 0)
(0 0 0)
(0 0 0)
(0 0 0)
(0 0 0)
(0 0 0)
(0 0 0)
(0 0 0)
(0 0 0)
(0 0 0)
(0 0 0)
(0 0 0)
(0 0 0)
(0 0 0)
(0 0 0)
(0 0 0)
(0 0 0)
(0 0 0)
(0 0 0)
(0 0 0)
(0 0 0)
(0 0 0)
(0 0 0)
(0 0 0)
(0 0 0)
(0 0 0)
(0 0 0)
(0 0 0)
(0 0 0)
(0 0 0)
(0 0 0)
(0 0 0)
(0 0 0)
(0 0 0)
(0 0 0)
(0 0 0)
(0 0 0)
(0 0 0)
(0 0 0)
(0 0 0)
(0 0 0)
(0 0 0)
(0 0 0)
(0 0 0)
(0 0 0)
(0 0 0)
(0 0 0)
(0 0 0)
(0 0 0)
(0 0 0)
(0 0 0)
(0 0 0)
(0 0 0)
(0 0 0)
(0 0 0)
(0 0 0)
(0 0 0)
(0 0 0)
(0 0 0)
(0 0 0)
(0 0 0)
(0 0 0)
(0 0 0)
(0 0 0)
(0 0 0)
(0 0 0)
(0 0 0)
(0 0 0)
(0 0 0)
(0 0 0)
(0 0 0)
(0 0 0)
(0 0 0)
(0 0 0)
(0 0 0)
(0 0 0)
(0 0 0)
(0 0 0)
(0 0 0)
(0 0 0)
(0 0 0)
(0 0 0)
(0 0 0)
(0 0 0)
(0 0 0)
(0 0 0)
(0 0 0)
(0 0 0)
(0 0 0)
(0 0 0)
(0 0 0)
(0 0 0)
(0 0 0)
(0 0 0)
(0 0 0)
(0 0 0)
(0 0 0)
(0 0 0)
(0 0 0)
(0 0 0)
(0 0 0)
(0 0 0)
(0 0 0)
(0 0 0)
(0 0 0)
(0 0 0)
(0 0 0)
(0 0 0)
(0 0 0)
(0 0 0)
(0 0 0)
(0 0 0)
(0 0 0)
(0 0 0)
(0 0 0)
(0 0 0)
(0 0 0)
(0 0 0)
(0 0 0)
(0 0 0)
(0 0 0)
(0 0 0)
(0 0 0)
(0 0 0)
(0 0 0)
(0 0 0)
(0 0 0)
(0 0 0)
(0 0 0)
(0 0 0)
(0 0 0)
(0 0 0)
(0 0 0)
(0 0 0)
(0 0 0)
(0 0 0)
(0 0 0)
(0 0 0)
(0 0 0)
(-2.83115776221 -0.209276614688 0.26691419703)
(-8.22391251486 -0.999933611663 1.16039545946)
(-2.42276582807 -0.029125539678 0.0762443678836)
(-0.996671856339 -0.0255219876633 0.0446085886536)
(-6.38276377903 -0.572772328608 0.70195089072)
(-1.17984442733 -0.000175539655139 0.0231234012747)
(-3.44661026106 -0.376386437391 0.443495418043)
(-2.19870874767 -0.0458419320519 0.0934998242883)
(-3.78260609852 0.0362398937575 0.048893981077)
(-2.63251065983 0.0315227621832 0.0201802591088)
(-1.51477801423 0.0299233654532 0)
(-4.53828368721 -0.157989594221 0.255584045184)
(-1.96493219806 0.029135767448 0.0152833748129)
(-1.34985711541 0.0226428191989 0.0039277213477)
(-0.96207586649 -0.0392366641666 0.0594138962308)
(-0.236536907044 -0.00483873443848 0.00986276656275)
(-0.375999188591 0.00233613161899 0.00497014663941)
(-0.20747864866 0.00409859356899 0)
(-0.278006061111 0.00243825903288 0.00375114397579)
(-0.496074120022 0.00903534034141 0.00073336397475)
(-1.02286005631 -0.0818909201912 0.102252444803)
(-0.888592245438 0.00205195653064 0.0176570385849)
(-0.368512325159 0.0084279876562 0)
(-0.716111379829 0.0141462724719 0)
(-0.264326364574 0.00522157988282 0)
(-0.884063597081 0.0202188002268 0)
(-0.325227750762 0.00743805642781 0)
(-0.626379998403 0.0123736926656 0)
(-1.65151288579 0.0377705961652 0)
(-3.49627902128 0.0799609522456 0)
(-2.46739655599 0.048741669188 0)
(-1.50453882746 0.0297210975796 0)
(-3.08558693404 0.0705683007508 0)
(-1.87155516006 0.0428030291255 0)
(-1.31023290149 0.0258827218059 0)
(-1.2862006433 0.0294157953616 0)
(-1.6515021417 0.0377703504448 0)
(-1.91701428905 0.0378692578129 0)
(-0.706140984138 0.0139493143756 0)
(-2.40299103452 0.0549571273313 0)
(-0.884056336253 0.0202186341694 0)
(-1.01969682616 0.0201433876739 0)
(-0.780131840346 0.0178418497069 0)
(-0.36850513042 0.00842782311034 0)
(-0.711920034388 0.0140634754151 0)
(-0.261397228411 0.00516371687515 0)
(-0.884060493937 0.0202187292569 0)
(-0.325217100104 0.00743781284405 0)
(-0.620514458729 0.012257823089 0)
(-0.607569878021 0.0138953057541 0)
(-0.174074879273 0.00398114481826 0)
(-0.334210100555 0.00660208352847 0)
(-0.203142308666 0.00401293224756 0)
(-0.417588038473 0.00955036397251 0)
(-0.253279360051 0.00579257510358 0)
(-0.482835726992 0.00953807737958 0)
(-0.287009154845 0.00656398565015 0)
(-1.00169846621 0.0229091450464 0)
(-0.428303225868 0.00846082649208 0)
(-0.428142416652 0.00845764982006 0)
(-0.536180827727 0.0122626167133 0)
(-0.536212851954 0.0122633491171 0)
(-0.228943167846 0.00452260992376 0)
(-0.13557079574 0.00310054485299 0)
(-0.105579444741 0.00241463363984 0)
(-0.202292130786 0.00399613758647 0)
(-0.0445493405187 0.000879027083299 0)
(-0.253273404263 0.00579243889292 0)
(-0.0548565194152 0.001257364062 0)
(-0.10668860445 0.00210513043962 0)
(-0.135566989251 0.00310045779745 0)
(-0.105582615758 0.00241470616195 0)
(-0.202614403194 0.00400250384935 0)
(-0.0446177451961 0.000880376812911 0)
(-0.25327928152 0.00579257330756 0)
(-0.0548590989937 0.00125742318841 0)
(-0.106605721481 0.00210349503101 0)
(-0.0640371442612 0.00146454873969 0)
(-0.00941715991907 0.000153969385353 0)
(-0.0210707473041 0.000415758288001 0)
(-0.0210657610668 0.000415659901861 0)
(-0.025912186193 0.000593932171311 0)
(-0.0259138432666 0.000593970153028 0)
(-0.0504438917566 0.000995335655359 0)
(0 0 0)
(-0.0377017433078 0.000864160132929 0)
(-0.00900781487546 0.000133181741815 0)
(-0.0148460658925 0.000219501060136 0)
(-0.0106704077096 0.000174459829782 0)
(-0.0201804994597 0.000462556411604 0)
(0 0 0)
(0 0 0)
(0 0 0)
(0 0 0)
(0 0 0)
(0 0 0)
(0 0 0)
(0 0 0)
(0 0 0)
(0 0 0)
(-0.00546382175411 4.40787532271e-05 0)
(0 0 0)
(-0.00831018125351 0.0001358704228 0)
(0 0 0)
(0 0 0)
(0 0 0)
(0 0 0)
(0 0 0)
(0 0 0)
(0 0 0)
(0 0 0)
(0 0 0)
(0 0 0)
(0 0 0)
(0 0 0)
(0 0 0)
(0 0 0)
(0 0 0)
(0 0 0)
(0 0 0)
(0 0 0)
(0 0 0)
(0 0 0)
(0 0 0)
(0 0 0)
(0 0 0)
(0 0 0)
(0 0 0)
(0 0 0)
(0 0 0)
(0 0 0)
(0 0 0)
(0 0 0)
(0 0 0)
(0 0 0)
(0 0 0)
(0 0 0)
(0 0 0)
(0 0 0)
(0 0 0)
(0 0 0)
(0 0 0)
(0 0 0)
(0 0 0)
(0 0 0)
(0 0 0)
(0 0 0)
(0 0 0)
(0 0 0)
(0 0 0)
(0 0 0)
(0 0 0)
(0 0 0)
(0 0 0)
(0 0 0)
(0 0 0)
(0 0 0)
(0 0 0)
(0 0 0)
(0 0 0)
(0 0 0)
(0 0 0)
(0 0 0)
(0 0 0)
(0 0 0)
(0 0 0)
(0 0 0)
(0 0 0)
(0 0 0)
(0 0 0)
(0 0 0)
(0 0 0)
(0 0 0)
(0 0 0)
(0 0 0)
(0 0 0)
(0 0 0)
(0 0 0)
(0 0 0)
(0 0 0)
(0 0 0)
(0 0 0)
(0 0 0)
(0 0 0)
(0 0 0)
(0 0 0)
(0 0 0)
(0 0 0)
(0 0 0)
(0 0 0)
(0 0 0)
(0 0 0)
(0 0 0)
(0 0 0)
(0 0 0)
(0 0 0)
(0 0 0)
(0 0 0)
(0 0 0)
(0 0 0)
(0 0 0)
(0 0 0)
(0 0 0)
(0 0 0)
(0 0 0)
(0 0 0)
(0 0 0)
(0 0 0)
(0 0 0)
(0 0 0)
(0 0 0)
(0 0 0)
(0 0 0)
(0 0 0)
(0 0 0)
(0 0 0)
(0 0 0)
(0 0 0)
(0 0 0)
(0 0 0)
(0 0 0)
(0 0 0)
(0 0 0)
(0 0 0)
(0 0 0)
(0 0 0)
(0 0 0)
(0 0 0)
(0 0 0)
(0 0 0)
(0 0 0)
(0 0 0)
(0 0 0)
(0 0 0)
(0 0 0)
(0 0 0)
(0 0 0)
(0 0 0)
(0 0 0)
(0 0 0)
(0 0 0)
(0 0 0)
(0 0 0)
(0 0 0)
(0 0 0)
(0 0 0)
(0 0 0)
(0 0 0)
(0 0 0)
(0 0 0)
(0 0 0)
(0 0 0)
(0 0 0)
(0 0 0)
(0 0 0)
(0 0 0)
(0 0 0)
(0 0 0)
(0 0 0)
(0 0 0)
(0 0 0)
(0 0 0)
(0 0 0)
(0 0 0)
(0 0 0)
(0 0 0)
(0 0 0)
(0 0 0)
(0 0 0)
(0 0 0)
(0 0 0)
(0 0 0)
(0 0 0)
(0 0 0)
(0 0 0)
(0 0 0)
(0 0 0)
(0 0 0)
(0 0 0)
(0 0 0)
(-0.0293631928601 0.000673032555499 0)
(-0.0640384540281 0.00146457869445 0)
(-0.0750146179148 0.00148015391525 0)
(-0.0151766304311 0.000224388500835 0)
(-0.0931795241717 0.00213104372884 0)
(-0.0240478261016 0.000474500636635 0)
(-0.0201813079502 0.000462574942982 0)
(-0.0377029572314 0.000864187957222 0)
(-0.135570703231 0.00310054273728 0)
(-0.0957322342589 0.00188894438567 0)
(-0.0350687928923 0.000691961280952 0)
(-0.119647492446 0.0027363741199 0)
(-0.0427233814193 0.000979260896904 0)
(-0.0307346655699 0.000606442275408 0)
(-0.0053728418301 4.47303426854e-05 0)
(0 0 0)
(0 0 0)
(0 0 0)
(0 0 0)
(-0.00486022529351 3.92093082428e-05 0)
(0 0 0)
(-0.00941689093376 0.000153964987477 0)
(0 0 0)
(-0.00910389192418 0.000134602253768 0)
(0 0 0)
(-0.0106709754614 0.000174469112453 0)
(0 0 0)
(-0.00621243502068 5.01181046051e-05 0)
(-0.037702738963 0.0008641829543 0)
(-0.135565118417 0.00310041501091 0)
(-0.0947597023508 0.00186975483367 0)