/*--------------------------------*- C++ -*----------------------------------*\
| =========                 |                                                 |
| \\      /  F ield         | OpenFOAM: The Open Source CFD Toolbox           |
|  \\    /   O peration     | Version:  v1906                                 |
|   \\  /    A nd           | Web:      www.OpenFOAM.com                      |
|    \\/     M anipulation  |                                                 |
\*---------------------------------------------------------------------------*/
FoamFile
{
    version     2.0;
    format      ascii;
    class       surfaceScalarField;
    location    "13.85";
    object      alphaPhi0.water;
}
// * * * * * * * * * * * * * * * * * * * * * * * * * * * * * * * * * * * * * //

dimensions      [0 3 -1 0 0 0 0];
oriented        oriented;


internalField   nonuniform List<scalar> 
92311
(
0.20358336868
-7.0308851812e-05
-0.00106438118006
-0.203282381788
0.000831616215554
-9.41559521373e-05
0.203772141082
-0.000699690981738
0.000608474949472
0.203582527835
-0.000111104260085
-0.00112338763235
-0.203291311143
0.000873755672211
-0.000150393512241
0.203780527974
-0.000694457876015
0.000553702741779
0.203545535057
-5.35901776867e-05
3.09424830033e-06
-0.00111139060288
-0.203286791695
0.000842421012844
-4.37092767647e-05
-6.1334041391e-06
6.21961210033e-07
-4.12504111954e-05
-5.01354158262e-05
0.203658689808
-0.000693296612629
0.000522149088742
-1.16580709222e-06
0.0510237514482
-1.61772991463e-05
-2.05281160248e-05
-1.89398584741e-05
-1.62210815752e-05
-0.0003680704744
-0.0509585635336
0.00032132221298
-0.051079976179
0.0511273629059
-5.43840695556e-06
8.03064980267e-06
2.3654907354e-06
5.23047769956e-06
-0.00021095020618
0.000154120925247
9.07060613404e-06
-0.000788548446597
8.54266272429e-06
9.55388000387e-06
8.47745323548e-06
0.00016093443945
0.000614848028322
-4.86841184623e-07
4.57959207666e-05
-0.00138363362529
-0.000311359716716
-9.7571680974e-08
0.00126258198636
1.17457860901e-05
1.5746289797e-05
9.1594900376e-06
1.07605654328e-05
0.000400790348482
-2.14306949394e-09
0
0
9.3976775018e-10
6.67640368755e-29
5.74465627941e-28
0
1.20330174376e-09
-3.10814839163e-06
3.5392816172e-06
2.94215129333e-07
-2.19466107718e-06
-0.00028765190236
0.000236123994622
2.24204139788e-05
0.00998014639016
-2.68261166047e-05
4.67259729177e-05
-0.0100030808454
0.00996294054469
-7.03360668501e-06
-1.1838664235e-05
-0.00995579426468
-1.16277392249e-05
4.43601368838e-05
0.000121083947259
-3.40050491142e-05
0.0512020996405
-1.96079538843e-05
-1.63914497444e-05
-5.3343930048e-06
-0.000161611436783
-4.12980637593e-05
0.0511591568295
-4.47811424946e-05
-2.81806502304e-05
-3.11550427192e-05
-0.0510489083788
0.000106424499669
-5.38688163975e-06
-1.68066471854e-05
0.00997821919358
-8.81189318412e-06
3.6596569349e-05
9.60899697005e-06
0.0127545754857
-9.57466942526e-06
-4.86009031428e-05
-0.0127384519861
0.0127439794416
1.84701911971e-05
-6.39568699497e-05
-0.0127280733649
-0.000217041336578
0.203734843567
-0.00186569659192
0.00157514346096
-0.203228048153
0.203874067079
-7.44796029181e-05
-0.000286193818477
0.000261988274448
-7.68162569523e-05
0.204004882401
-0.000148926878584
9.62972691036e-05
-0.00023024722508
0.203783677642
-0.00199840798994
0.00162101725435
-0.203392074267
0.203976755442
-0.000178763410141
-0.000391102791297
0.000300891580681
-0.000135421397432
0.204164233984
-0.000231538171572
0.000104316291111
-8.29131985803e-05
-8.51449102669e-05
-7.220711834e-05
-0.00202702151655
0.203815974669
0.00165208810006
-0.203365697338
-6.47618767208e-05
-0.000157194598136
-0.000235341094427
-0.000130733336664
-0.000190831951808
0.204197730403
-0.000269032057965
0.000265781705247
0.0510380977653
-9.09190040279e-06
-1.65203435854e-05
-2.19439739445e-05
-3.91294996409e-06
-0.000671426293505
-0.0510043335868
0.00060630692731
0.0512897232481
8.6332005613e-05
-5.26817624237e-05
-3.9743385375e-05
-6.57421196541e-05
-5.3471957241e-05
-0.000119367134263
-0.000485489080979
2.21478470006e-07
-0.00138707454207
1.45989106156e-05
1.91869870011e-05
1.50687450524e-05
1.80361135646e-05
0.000432675682666
0
0
0
2.23985470544e-31
1.11682674558e-32
0
-3.95359272544e-30
0
5.26503052688e-10
3.25020753523e-10
6.73164401578e-10
1.22518819409e-07
4.59792387332e-30
3.03575716401e-09
-2.25367772477e-09
0.000531423002459
-1.61531388451e-05
-4.20102136159e-05
-3.12753656734e-05
-2.86702928791e-05
0.0511181056438
-0.00057828140673
-3.30032071759e-07
-1.52433829363e-05
-2.65042143387e-06
-1.6776263345e-05
0.0510325183306
0.000431231276938
-0.050969293269
1.09275498273e-05
7.48599771378e-06
0.0100976850885
-7.47355956112e-05
6.61829301703e-05
-0.0101089820959
-3.45362215905e-06
4.91191806846e-05
-0.0100520131801
-0.000119083780257
0.000119163986451
0.010013878548
1.11514952356e-05
0.012703160242
-0.000118337265014
0.00010073970453
-0.0126977971672
3.75379480044e-05
-6.91227788322e-05
-6.54496496401e-05
-6.11328301958e-05
-6.82159212914e-05
0.0513418905197
-6.096247638e-05
0.0512503086362
-4.83137324516e-05
-5.64999945622e-05
-4.93333739824e-05
-5.41016286478e-05
7.30197212826e-05
-5.90628743915e-05
-5.91152558309e-05
-5.62885374789e-05
-5.75496895903e-05
0.0512941510837
3.52580201256e-05
1.32133186491e-05
-1.51304308466e-05
-6.0532981951e-05
0.0127672164617
-1.62496343942e-05
6.1489778016e-05
-0.00988112773654
-1.17378082157e-05
0.00983585954386
4.65474950341e-05
1.95906922267e-05
-6.47754483209e-05
0.0127571411813
-0.0127596041061
-6.06905737797e-05
0.012764219183
-2.30297717633e-05
2.20718993044e-05
-0.0010238601335
9.20012726331e-06
4.77684078588e-06
6.16415175781e-06
0.000219988058467
3.38456546655e-05
-2.61744466913e-07
1.25150964624e-07
1.56964283154e-05
1.6242802305e-05
1.59017493707e-05
1.52301522267e-05
-0.000615428989399
-6.03738945382e-05
0.000332127836354
-2.60021214635e-06
-2.21467346e-06
1.88573856701e-06
3.13397789677e-06
1.77361696132e-06
-1.9389916746e-06
-2.30836349414e-06
-2.37469889564e-07
5.33426941459e-06
4.83810468809e-06
6.65624294913e-06
0.000337468522523
-8.86206413092e-05
-7.75340101807e-07
1.40823086242e-06
1.33724941637e-06
7.67158052071e-05
0.0127158934058
-8.30300942369e-05
-0.0127033401101
-0.0127035389408
-1.6964024278e-05
-6.81126120652e-05
0.0127053650101
6.23179626388e-05
-1.42370081411e-05
1.55232625316e-05
0.00996043674967
4.2211582452e-05
2.57199351587e-05
0.00999253125254
-0.0100271523476
8.55159290351e-07
-0.0126926371785
7.23531226558e-05
0.00997121860156
1.32446581057e-05
0.0127212321281
-7.4347390529e-05
0.0127107544664
-3.90539548948e-07
-5.34723069855e-05
4.42913231956e-05
4.12116587178e-05
-0.0127290926733
0.0127292258682
-5.06193619135e-05
-1.12371104113e-05
3.74041762557e-06
4.24912592967e-05
-8.09641020539e-06
-0.00996856102706
0.00997271070062
1.38489659287e-05
0.0127117644807
3.10707576612e-05
1.27002162579e-05
-6.07433559829e-05
-0.0127178862984
-6.55625089117e-06
-1.86992795198e-05
0.01272653196
1.13335628991e-05
2.79137483473e-05
0.012732488927
-4.00933217456e-05
-1.32831351694e-05
-8.56590966902e-06
0.00998767039213
3.93111035524e-05
-6.47879536961e-06
0.00998350140282
1.07907232939e-05
1.7338539795e-05
0.00998761933505
7.83360879071e-06
0.0127385863773
-2.81223551491e-05
-2.5977704526e-05
-0.0127447185963
0.0127580414722
-1.51584699604e-05
-2.25244108075e-05
-0.00999609921119
0.00998538106925
5.10931778055e-05
-0.00998176609423
5.68068116893e-06
0.00995630166598
-2.33776438038e-05
-1.28410775414e-05
8.57232728339e-06
-1.48824201287e-05
1.96862552395e-06
4.40923951905e-05
7.3259682482e-06
-2.19115429007e-05
-6.64102274487e-05
-0.012725310295
0.0127412589012
2.63817228484e-05
1.70628020782e-05
-0.00996356583826
0.00994069485388
-0.00996073872813
0.00993065306026
2.94062181986e-05
1.89327206069e-05
-5.29755547918e-05
-0.0127122496932
5.72546726627e-05
-1.87555238257e-05
-0.00997857061119
2.56010579377e-05
-0.0127067640495
2.79936413742e-05
-0.00997952483085
-3.83506862453e-07
0.000493809039209
1.38813928596e-06
4.16281797185e-06
2.72088191719e-06
1.23974771449e-06
-0.000631012046041
0.000399268599114
-0.000227469774596
-9.19529726044e-07
-8.24519301355e-07
1.13088030335e-06
1.12440500658e-06
-0.000541830668672
-7.44807163481e-07
-6.53374725016e-06
-2.52970243251e-05
-1.94899854395e-05
0.000560666381438
-0.000444934897604
0.000522982417273
-2.98827296508e-07
2.22089312827e-06
1.74352528322e-06
7.46909545959e-07
-0.000732478157232
0.000703454817455
-1.46515243387e-06
-5.91829628784e-07
1.7502961411e-06
8.64745944702e-07
-5.11116757451e-07
-1.41169900487e-06
-1.87151977584e-08
-0.000898988851215
1.56138989489e-05
1.45678381589e-05
1.38278552177e-05
1.49068340876e-05
-0.000235350584912
-2.64141966215e-07
-1.64728893082e-06
4.77747319696e-07
-1.19421724083e-06
-8.4537301768e-07
-3.01223952867e-07
0.000552127734494
1.01070472818e-05
8.13974671259e-06
1.08099370712e-05
1.1139893293e-05
-0.00107877800921
-0.000390646637149
1.30617543141e-07
-9.70743412549e-07
1.2991213871e-07
-1.85666150597e-07
1.54191491036e-05
1.22480967132e-05
1.37826064201e-05
-0.00132751012078
0.000453351923876
-3.55393154559e-07
-1.02679670426e-07
-0.000161586332437
-0.0127111713802
1.14212831535e-06
0.0127134573489
0.000148492652932
0.0127191789419
0.000170150807241
-0.0001748708089
-0.0127254149261
2.30648130561e-05
-9.22814904496e-05
0.0100755735491
8.48250689851e-05
-1.22426973268e-05
0.0100765419874
-0.0100885965174
-8.37083032598e-05
0.0127232584499
-0.000164946124997
-0.0127181597817
0.000159153443678
0.0100604509021
-9.87540546801e-05
-0.000146688281117
0.0127196416909
-1.13362515788e-05
0.000135876370565
-0.0127278840546
0.000134907827703
-0.000137662487091
0.0127389584134
3.29209311611e-05
-0.00010979948586
0.000105688842797
2.96307570082e-05
-0.0100475278211
-0.000114477405167
0.0100162005875
-0.000149048349723
0.000125847363907
0.0127302503448
-0.000108662834195
0.0100447158924
8.55879938945e-05
-5.76495689817e-05
-0.0100650983256
9.70516489553e-06
8.8172982414e-05
0.0100099159906
-5.50929976232e-05
-0.000108596385477
0.0127129422297
9.29694990541e-05
0.0127122461989
8.95780268901e-06
-0.0127067694112
9.67090677831e-06
-0.0100406094935
0.0100091348969
0.0127224804661
-0.0100564150022
-4.12457749437e-05
0.0127676836423
-2.0677045467e-05
-2.31209876586e-05
0.00996273417955
5.38985645333e-05
0.00992565070507
7.40895728311e-06
-2.10695601999e-05
-6.34428465845e-05
0.0127732051935
1.51945084975e-05
5.66820613828e-05
-2.20287368568e-05
0.00992575194567
5.46735698878e-05
0.0127778596685
-2.59394656166e-05
0.0098915443484
1.00681477539e-05
-2.79183344406e-05
0.0127773236067
-6.14416321005e-05
1.81807805652e-05
-0.0127871028579
2.99230628635e-05
0.0127876672864
-3.30882992035e-05
6.45939552332e-05
-1.46592645002e-05
4.70845549641e-05
5.59308467289e-05
-0.00985243132324
1.43552872182e-05
0.00981355612499
-3.18109856306e-05
1.82724383464e-05
0.0127779664004
1.45819168552e-05
-0.0127551830253
-6.1191169763e-05
-1.98963449571e-05
2.26765971962e-05
-6.4596646422e-05
2.36650685543e-05
1.96770840313e-05
0.00991726376278
0.00990156193311
2.96778684272e-05
-2.13835437976e-05
0.00987724214777
2.99232377941e-05
-6.2054786355e-05
0.012763410135
0.00989789303249
0.00984803166001
-2.44526697492e-05
3.36085986551e-05
5.58522461227e-05
-2.5720901939e-05
0.00981823043465
3.29467766393e-05
-2.25365648487e-05
0.0127635001495
2.10935852522e-05
0.0127668251047
-6.22715049292e-05
6.17017150045e-05
-0.00987242462423
0.00984022531846
0.0127682817051
-0.000234271671303
-0.000195471401947
-0.000147293820346
-0.00011282312048
0.20477832729
-0.000190168494582
0.000164327797356
1.64011474705e-05
-5.86813458858e-05
-6.1674089042e-05
-5.76581088995e-05
-6.35317567233e-05
-2.51000573585e-05
0.0513579412991
1.31467130266e-05
-0.000535791005858
-3.11745146052e-07
1.09663188356e-05
1.10610225111e-05
8.89000547576e-06
0.000340682350504
-0.00114919063889
0
0
0
-3.67206572504e-30
-2.58346967567e-29
0
-1.75883283191e-30
-2.19059441753e-05
-1.69639504331e-05
-1.76395961014e-05
-2.12507333849e-05
8.00473954998e-05
-0.000450334218193
0.0511127999765
-1.12843528868e-05
1.5755445194e-05
8.48482454916e-05
0.00997977714103
0.0513213119485
-5.7112412729e-05
-6.12787520892e-05
-5.88535264824e-05
-6.03427475269e-05
3.16013330105e-05
0.0513510824078
-5.08960807672e-05
-4.79048832633e-05
-4.95954471288e-05
-5.45693947679e-05
1.26818508421e-05
1.34635216316e-05
5.68112652911e-05
0.00978932233896
-1.41017995477e-05
4.76961296536e-05
-4.79604177932e-06
5.99921675654e-05
-1.96547491565e-05
0.00977734522331
2.48255813155e-05
0.0096697841529
1.6512097331e-06
4.43849579723e-05
2.95574924478e-05
-0.00970526422031
-2.75714291304e-05
0.0513748399662
-3.77250598413e-05
-3.91624625337e-05
-4.42731648036e-05
-3.24692267443e-05
8.85732886212e-05
4.25623192852e-05
-1.03584099301e-06
-2.83654951632e-05
-2.13626018222e-05
-2.29912653246e-05
-2.41649136014e-05
8.73698324396e-05
5.23260482639e-05
0.0513513526829
-1.91603496433e-05
-1.69300296758e-06
3.51012771861e-05
5.51774629418e-05
0.00964925499034
-5.56551114144e-05
-3.70293389747e-06
2.06566180836e-05
0.000131382782512
-0.00962977714719
0.0096302774577
-0.000131099788296
1.0109588427e-05
1.23475641628e-05
1.0772262886e-05
0.000528386961278
-0.00099176477449
-2.94882679217e-07
-0.00110180266592
-4.3330677105e-07
7.59585962622e-06
3.31691580502e-06
6.22982495454e-06
-0.000509700146316
-3.45648580433e-07
-0.00100555724402
3.69641620701e-06
6.11264307957e-07
3.21809703165e-06
0.000407487453166
-0.000486508710281
-5.87944263791e-08
-1.15415590406e-07
7.14360019133e-07
5.79112555149e-07
-4.53240712909e-07
9.90262442832e-08
1.24848408457e-06
-1.67513662877e-07
-0.000728856034178
5.07970948136e-06
6.6487177396e-07
4.51951729892e-06
5.36748857323e-05
-5.65220702819e-08
-0.000328096183162
4.40465086365e-06
3.63456682236e-06
5.17144978255e-06
-0.00017327344116
-1.15863078514e-07
-0.000479438112006
-6.60007765883e-05
-0.0127374541071
-1.55354154664e-05
9.05606984448e-05
-0.000106803777234
0.0127476800477
-9.87523089346e-05
0.0127274774177
1.50382185238e-05
0.0099795561927
0.000118925180198
8.39928359294e-05
1.44926183783e-05
0.00995606714842
-0.000115982094403
0.000118106868852
0.00996012217964
0.0127370289072
-2.61595055514e-05
-0.0127788208512
-4.38301743227e-05
1.75844512215e-05
0.012771900167
0.0127862798714
2.83217271682e-05
-3.12223138738e-05
4.3813818779e-05
-2.38277739415e-05
5.73588264483e-05
0.00975111617456
5.4188121721e-05
0.00977306414323
1.15695013817e-05
-2.92473518768e-05
0.0127749722903
1.83804371418e-05
1.65104323804e-06
0.00973980642369
-0.0127688581377
-5.83273693522e-05
2.41624043676e-05
0.0127628917135
-2.41989478861e-05
0.0127622597917
2.42119118546e-05
6.4897906579e-05
0.0097988105488
-1.10305513519e-05
5.50804281636e-05
0.00973962513135
1.34711235528e-05
0.00975996852868
0.012757118989
2.31092665474e-05
0.0127559921822
-5.35345433813e-05
2.46519559581e-05
-1.65012096106e-05
-2.71409913516e-05
-0.0127519161775
0.0127512145494
2.55644584711e-05
5.53277725708e-05
-0.00972679626509
0.0096916034206
3.4115137898e-05
8.9194749087e-06
4.93508474054e-05
-6.97791382619e-06
0.0127522601245
-1.79250533091e-05
1.47106742063e-05
2.34628108876e-05
-0.0127549568873
-4.58901489824e-05
2.30356671768e-05
0.0127632455786
-2.09285968885e-05
-2.46617739615e-05
0.0127516775029
2.19169379625e-05
5.21538385581e-05
0.00966335799628
5.74187546144e-05
8.05140388359e-05
3.32734436094e-05
0.00963313261967
-8.14806155296e-05
-1.76986401159e-05
0.00964227396221
8.24028036138e-05
0.0127602585264
1.79694446263e-05
0.0127703994602
-3.10442336228e-05
1.99956265744e-05
-2.15583387534e-05
-1.75041509415e-05
-0.0127673717875
0.012776218876
1.15211273528e-05
2.38276324912e-05
-0.00963584704262
0.000133682123355
0.00963552199465
0.000106913282081
2.36339032814e-05
-0.000106246796581
-2.08233705064e-05
0.0127776997368
0.000109177852224
1.59169951725e-05
-0.000423943516875
-0.0492711048575
0.04921200011
0.000650321857868
-8.76452560946e-05
-6.69927815984e-05
-7.48695113149e-05
-7.92860560952e-05
0.000141901763935
-0.000734494282896
0.0498399276134
-7.4276669216e-05
-7.11076171239e-05
-8.08401802851e-05
-6.73443423434e-05
0.000250463238644
-0.0497350583919
0.000672978362326
-0.00116451367064
-0.0500591045885
0.0503319600124
0.000992327565188
-9.82297999787e-05
-9.73157371081e-05
-0.000116431597984
-9.49075477811e-05
0.000306479665656
-0.00080725524393
-6.40058495093e-05
-6.59678597828e-05
-6.09582128168e-05
-6.6106667037e-05
0.00019977263874
0.0505583359915
0.00065451129544
-0.0503481953696
9.68370603394e-07
-0.000376572216107
-0.000217200194714
0.000328652685777
0.000231450713991
1.65549775562e-06
2.22093156265e-06
2.21527783147e-06
3.4454154992e-06
1.74013531105e-05
-0.000347366453494
0.000262226983422
0.000244667433831
7.81170940284e-06
2.71365255463e-05
1.91907182941e-05
2.61339493562e-05
-0.0003583801808
1.46598246588e-06
-0.000116827514215
-0.000520504065008
-5.71863314467e-08
1.84971867212e-06
8.02733093239e-07
8.53332856233e-07
0.00060585365266
3.05935842047e-05
9.83668750509e-06
-0.000159462672291
0.000455712429599
-0.000426500133382
6.91607867211e-05
1.05218491405e-06
1.23659746339e-05
7.9137079122e-06
9.67385112386e-06
7.47738689337e-06
2.3645604013e-05
8.67107300732e-06
8.38746030269e-06
9.69070195693e-06
-0.000876696136986
-9.26260867357e-05
-1.19714282776e-07
0.000931346767559
4.44145093007e-11
-4.70484243001e-09
8.36017590772e-09
-3.09928884081e-08
3.71640764621e-09
-6.57189177838e-09
-5.88266612228e-09
3.18059467178e-10
-4.89375480482e-07
-5.37642047573e-07
-1.14271891246e-06
-5.5044068411e-07
-1.55622926623e-06
1.52643181924e-07
8.92361301979e-07
3.54151959787e-08
5.84141106238e-29
-1.62134472465e-08
-1.40375522721e-07
-3.68022849884e-08
-1.54056886365e-07
-1.51601988734e-09
-1.44595876037e-08
-5.12987136301e-07
-1.57127210781e-06
-3.36988758434e-07
-7.12596199394e-07
8.78266341958e-07
0
0
0
0
1.36252485739e-31
-7.13401506419e-30
0
-2.32822209511e-08
-2.0424261161e-07
1.17542009076e-08
-3.29434700246e-08
4.87250328516e-08
-2.45427504501e-10
8.35702964332e-05
-1.73351792414e-05
-1.7414927683e-05
-1.51924578537e-05
-1.32977837528e-05
0.049051224124
8.78177272857e-05
7.60106887772e-05
-0.0492352375932
0.0490896205288
0.000263703869698
-2.40077677248e-05
-3.28718841953e-05
-2.29272154372e-05
-3.54813326078e-05
0.00010491545301
-0.0492593517052
4.7000520815e-05
2.15773176126e-05
-0.0107249886654
0.000101838276427
0.0106500821444
-9.68312476508e-05
0.0107026314883
0.00010292712349
2.45260227636e-05
4.89270640696e-05
-0.00010685868842
-0.0107687844486
-2.513549562e-05
-3.7427926534e-05
-2.31032305423e-05
-3.40373989541e-05
-0.000170690175431
0.0122618509567
0.0121942416724
0.0122056524184
0.0122506640287
4.36621628848e-05
0.000113038069609
2.62070160953e-05
5.07541752259e-05
-0.000120312209616
0.0106396714921
0.000454377693824
-6.2522486126e-05
-5.50729312269e-05
-5.49360242773e-05
-6.76359429825e-05
0.000125952885858
-0.0493474282241
0.0495111386968
-5.74789875688e-05
-6.93040892766e-05
-6.61487369436e-05
-5.86959464983e-05
0.000139079524943
-0.0494999910613
0.00055579196908
0.0106928446242
1.4358824787e-08
8.13067098158e-05
-0.0107573008291
9.72767240028e-05
0.01057438042
-9.76470282737e-08
8.77601810294e-05
-7.0260276962e-05
-0.0106417666364
5.91092273294e-05
0.000935125616659
-9.37405486551e-05
-0.000100273881282
-7.8584070947e-05
-0.000116352189531
0.0492094575299
-0.000184169680409
-0.000146203348959
-0.000184895108371
-0.000153682769951
1.9289784185e-05
3.1602641239e-05
3.50756403318e-05
3.96915244361e-05
0.0495159618492
-8.86644996624e-05
-7.56447149984e-05
-7.57600401546e-05
-8.9083831906e-05
0.000240432082949
0.0497313094916
0.000953774914505
-9.41139613549e-05
-0.000113334613842
-0.000118470574012
-9.18570948019e-05
0.000184025068875
8.67085781476e-05
0.0106304069266
0.000105753966651
0.0104162153295
-8.14616980576e-06
0.000153516626828
-0.0105025988558
0.000154190383057
-0.000171715923488
5.59149743364e-05
-1.64599621771e-06
8.80021378227e-05
-6.98397889661e-05
0.0105125072698
0.0102920453446
6.78744395042e-05
-7.4159183976e-06
0.000140165245476
-9.52779351502e-05
-0.0103746535261
0.0500549647383
-0.000153674761424
-0.000121162199989
-0.000122328314364
-0.000144873334345
-0.00122055310782
0.000274543143341
0.00139622785428
-0.000131156804454
-0.000130060345485
-0.000126321106764
-0.000148362327501
0.0507128628916
0.000156470714094
-0.00167449175924
0.000168670974141
0.0103422678861
0.00017937770693
-0.000201249979702
-4.63513547321e-05
0.000244113203884
-0.0101558703639
0.00025719082957
0.0100646544461
-0.000278729792772
7.71206548662e-05
-1.25865325629e-05
0.000142214345022
-0.000111133097087
0.0102264480731
0.000117376842621
-2.27961668817e-05
0.000171289005167
-0.000168400359333
-0.0100931598862
0.0100469932573
0.000847504249925
-7.81179027545e-05
-9.49327145493e-05
-7.92790279555e-05
-8.54878609735e-05
0.000225127972405
0.050238574845
-6.70843015874e-05
-6.67197375271e-05
-7.13880016179e-05
-6.7575381846e-05
0.000226169241341
-0.0500432604332
0.000698932290233
7.2455196426e-05
0.0104823044206
5.34186037365e-05
-0.0105452531634
0.0102795087035
-5.79420966003e-06
0.000105166593426
-0.0103509703803
5.58409150628e-05
0.0102746882055
-3.48131822712e-06
5.98234772232e-05
-5.35906067345e-05
-0.0103307631234
5.93425435271e-05
0.00113646138405
-0.00010345594814
-0.000123371559969
-0.000113649808852
-0.000102686360987
0.0506936857245
0.000341428530492
0.0504576823245
-7.75272371211e-05
-7.20814195704e-05
-7.44217370881e-05
-6.80958365593e-05
0.000258231885276
-8.09210150565e-05
-7.01915853712e-05
-7.45958313499e-05
-7.9481120911e-05
0.0507060490094
0.000913696987499
0.000279715178417
0.000107609364434
0.0102218823178
5.92928395311e-05
-2.00095022526e-05
0.000143984402949
-0.0101087871782
8.25663417944e-05
0.0100645376697
5.23529738964e-05
-7.52483655465e-06
6.32420022805e-05
-4.96085084541e-05
0.0102260367181
4.94346218095e-05
-1.25938235292e-05
6.18398040237e-05
-5.1040608339e-05
-0.0101472464771
0.0101243748457
6.12115585486e-05
0.0102126969579
5.49518029574e-05
-0.0102586501281
5.05182802541e-05
-0.0101441051149
0.0101276835332
-1.1455194527e-05
4.93455965994e-05
0.000329551199159
-4.57187511112e-05
-4.80301757157e-05
-4.61806131135e-05
0.000495115567832
-0.000249397049595
-0.000321846068699
-2.95610191516e-07
0.000428580870229
0.000350204195677
-4.07993637462e-05
-2.53260424137e-05
-4.28277674797e-05
-0.000252339747323
-2.51901959891e-07
-3.53082851346e-08
-4.15990999962e-05
-2.29023932513e-05
-4.20505011229e-05
-0.000358979839443
0.000553675542831
-1.89103581325e-07
2.20154859761e-08
9.74902720223e-08
-3.46712646761e-07
9.44531055572e-08
8.349911613e-08
-5.64505728674e-07
1.2338784478e-07
-3.01602402224e-06
-4.03187280626e-08
-8.34591667073e-10
5.25288089809e-08
-3.19354916979e-07
9.35231506284e-09
-4.84446378433e-07
-5.95088429773e-06
-5.84479997384e-08
-4.00969944126e-06
-1.59571716169e-06
1.88817758883e-06
-8.65782289986e-06
-6.19610704286e-06
-6.03128961137e-07
-5.81833248779e-06
-3.68487081423e-07
-6.60570059053e-06
2.56618726971e-06
-1.01343575801e-05
-9.61356186338e-06
0.000219132261989
-1.95451935587e-06
1.09451182834e-06
4.02102699333e-07
-3.71794941838e-08
-6.30163460576e-05
-0.000152731564666
5.67732677587e-07
-4.65741385665e-06
-1.37703823247e-06
0.000268720255005
-8.94385574842e-10
0.000104981267624
0.00023295821201
4.81595165927e-06
4.73221586976e-06
1.0923070073e-05
6.78390552451e-06
-0.000365285725998
-7.47409378391e-05
1.36140121799e-06
1.89694039402e-06
2.45532173334e-06
3.28771068816e-06
3.13722091534e-06
-6.15027757181e-05
0.000131761343339
8.52485062329e-06
5.45144131541e-06
6.04887233202e-06
-1.15136637901e-07
-1.40310046591e-07
1.05483473425e-07
-2.35037001059e-07
-2.93055481635e-07
-2.1874771504e-07
-1.72711257769e-07
1.63826271561e-07
-4.70295635154e-07
-1.7894170597e-07
0.000260302788453
8.78292049786e-06
3.80102311881e-05
3.85272400213e-05
3.42933378695e-05
8.49764718123e-05
-0.000329167115472
-0.000111500717566
4.60067423286e-06
1.41138233344e-05
1.51936615596e-05
1.91079760191e-05
5.00360997163e-06
0.000205452320576
3.11968365006e-05
2.13243317573e-05
2.66043977141e-05
-0.000212649994123
-1.98584227556e-06
-5.38802895e-07
1.51533251508e-06
-8.69849668624e-06
-1.31382139266e-06
-4.41212009047e-07
3.77178107526e-07
-6.01558355138e-06
4.02007264067e-05
5.48059418885e-08
4.35370021805e-06
3.98032261519e-06
3.23112422454e-06
-8.14492612298e-08
-0.000740979055492
4.27711208237e-06
2.94515043113e-06
3.55898149066e-06
0.000812766068177
-3.74955473499e-05
-1.83206959429e-08
5.68294871991e-08
-1.44180361957e-07
-1.53409640187e-07
1.50834091358e-08
5.55715298724e-08
2.33623534013e-08
-1.61452492995e-07
0.000110581076119
2.53059524584e-06
1.73843571488e-05
1.57155968421e-05
1.4218074762e-05
-0.000430574395563
-0.000673302182374
-6.59858831406e-08
7.98421274893e-06
9.09117500984e-06
9.57571402e-06
7.63603496831e-07
1.36371968407e-05
1.1979602712e-05
1.2543740325e-05
-0.000628164410916
5.13031768299e-06
2.31698222104e-09
-2.31859733078e-07
-1.59713595185e-07
2.04053478113e-07
1.07475883258e-07
-2.48856111672e-07
3.46418440415e-07
-3.56641776427e-07
0.012318612618
-1.47436442995e-05
8.91831671311e-06
4.52363395699e-06
-0.0123372392575
-4.23983909153e-06
-0.012316097062
0.0122991325222
2.54398950673e-05
9.47117402362e-05
1.27965759474e-05
-8.89119632122e-05
-0.0107932691664
1.79995095916e-05
-0.0107430464623
0.000106556684195
0.0106696567468
1.46600189021e-05
0.0123024393971
9.80435019714e-05
-0.010812103396
2.26014830024e-05
-0.0123325299074
0.0123250192595
1.72453975414e-05
-2.12416243957e-05
-0.0123430088596
-3.23410019375e-05
-0.0123355377336
0.0123262920589
5.77248113502e-05
2.68792696669e-05
-0.0107539414032
0.0106854774156
4.53808587949e-05
-9.77648570981e-05
9.5128766524e-05
-0.0108345293625
0.0123112814583
4.15322544811e-05
-0.0123520828948
-0.0108205615227
-0.0122911878911
5.7290561639e-05
-3.2140091298e-05
-2.68276173102e-05
0.0122690401278
-4.00005399317e-05
0.0123078616866
7.25523878093e-05
2.53234342382e-05
0.0106257464025
-0.000124013808835
5.66879661456e-05
-0.00013187054148
0.000123813140401
0.0105791046156
-1.72334808568e-05
9.68025399232e-05
0.0122925057742
-0.000138176290586
0.0105655990415
-7.19598708103e-05
0.0123603383303
-8.8321409095e-05
0.00010377133883
-0.0123677321508
-0.0123469050915
8.79209400568e-05
0.012343911021
7.61030700048e-05
9.17635212727e-05
-0.010817868986
0.000101536010761
-0.0107275375974
8.09402365852e-05
0.0106596936103
-0.012357502994
0.000122289001861
0.0123607950739
7.86217269934e-05
-0.0107858649677
0.0123788936784
0.000124199164738
-7.58012615432e-05
-0.0123819403327
-0.000144104723634
-0.0123993006112
0.0124073784642
0.000155604113427
9.1675970621e-05
-0.0106828041324
0.0106145592472
7.07948099949e-05
-7.02834913821e-05
-0.0106975704209
6.11235892039e-05
0.0123835762164
-0.0123991268419
0.00013498078149
-0.0107394953712
-0.00013162555975
-0.0123530960898
-0.000127518080366
0.0123532318779
0.00017363316585
0.0123300860218
0.000107435005108
0.000102633061318
0.000115471003294
0.010563682878
0.000109385384406
0.0105962137693
8.42385073047e-05
0.0123251934783
0.000147018369997
0.0105254312874
8.98154807948e-05
-0.000164671280154
0.0123561618696
-0.000137340711094
0.000208773007242
-0.0123184823307
0.000205367268475
0.0123342485585
-0.000163644360112
0.000109672259908
0.00013362679499
-0.000146136397479
0.00017608166429
-0.0104609154323
0.000125509855823
0.0103703017445
-0.00012349422939
0.000248865713456
0.0123768781221
0.000105569592396
-0.0123803639443
0.000198067005114
-0.000116479724209
0.0123859086231
-0.000170179483373
0.0124084603117
0.000182962212556
9.4001800682e-05
0.0105526010292
0.000107555881251
-7.30120876436e-05
0.0104377915354
5.62161805839e-05
0.0124171354164
0.000209792245383
0.0104778481326
0.0123928628891
0.000231040328687
-0.000120122648943
-0.000266010889294
-0.0124284018558
0.0124549743321
0.000269498696678
0.000157615394551
-0.0104127494702
0.0103262230038
0.000109280290906
-8.3386824946e-05
6.05537502692e-05
0.0124188953913
0.000239768893032
-0.000293769759162
-0.0124082867684
-0.000232108039382
0.0124603415991
0.00033177872339
0.00014581211646
0.0123589713061
0.000248833890422
9.9529611004e-05
-0.000201292266087
0.000228706890851
0.000218064049855
0.0102398882838
-0.000241894515074
0.000183999740701
0.0102932055467
0.000149595673672
0.0124192372639
0.000131999310009
-0.000254336988164
0.000291225474393
0.000114178913783
0.0101867231509
0.000183661851872
-0.000329338690217
-0.000219829879273
0.0125528757214
0.000361112369286
9.91100147132e-05
-0.0125249822126
0.000355873960075
0.0126434508233
-0.000336529066809
0.000109228398425
0.000232703314569
0.000228660569461
-0.00025445520007
-0.0101078571666
0.000230028314176
0.000216352404329
0.010036805895
-0.000292713688388
9.31477054122e-05
0.000194866231452
0.000381776300081
0.0126471093415
0.000113299018375
-0.0124508853571
0.000337222136678
-0.000203228201932
0.0124984639787
-0.00030208491688
0.0124836175394
0.000297756749037
0.000161760346598
0.0102580578284
0.000172685928668
-0.000137678508767
0.0101480759042
9.61707274485e-05
0.0125259979333
0.000325800291035
0.0101712127444
0.000361028971872
-0.000198762376272
0.0125696490274
-0.0125821793462
-0.000374183935976
0.000359924157773
0.0126409437536
-0.0101073804124
0.000212350298875
0.0100419435074
0.000166243755263
-0.000147296910991
0.00010258731844
0.000347942796069
0.0126447454783
-0.000204963695605
-0.0124659893264
-6.68743633454e-05
0.0124794929091
0.000185773248097
0.0124394746061
0.000180222998915
-0.012434081169
8.55460783213e-05
5.22777091084e-05
0.0104100269948
5.86965630741e-05
0.0104610478831
-0.0105237270663
5.91375422279e-05
0.0124507840226
-0.0124578279759
0.000164578513753
0.0103931442882
5.50808891223e-05
-0.000232101639263
0.0124934290438
-6.60950859406e-05
0.000208611438869
-0.0124646953577
0.000257973115996
0.0124896893516
8.29793361842e-05
5.22730635416e-05
8.04651601011e-05
-0.0103358491651
4.86648778961e-05
0.0102741970334
0.000230865129664
0.0125185903867
5.05411933237e-05
0.0125217637883
0.000187798265468
-5.81198739726e-05
-0.0125071443929
-0.00020717979583
-0.0125429813101