/*--------------------------------*- C++ -*----------------------------------*\
| =========                 |                                                 |
| \\      /  F ield         | OpenFOAM: The Open Source CFD Toolbox           |
|  \\    /   O peration     | Version:  v1906                                 |
|   \\  /    A nd           | Web:      www.OpenFOAM.com                      |
|    \\/     M anipulation  |                                                 |
\*---------------------------------------------------------------------------*/
FoamFile
{
    version     2.0;
    format      ascii;
    class       volScalarField;
    location    "13.85";
    object      alpha.water;
}
// * * * * * * * * * * * * * * * * * * * * * * * * * * * * * * * * * * * * * //

dimensions      [0 0 0 0 0 0 0];


internalField   nonuniform List<scalar> 
28582
(
0.999975836724
0.999975419753
0.999988194423
0.999988101963
0.999997785921
0.999998077299
0.999986404275
0.999987217812
0.0588356228103
0.0605400486607
3.61904253162e-26
0.999986010892
0.854192506505
0.849798251814
0.999986893019
0.999980603095
0.849906469646
0.997703430621
0.997317359187
0.999983261534
0.999986702981
0.999995114309
0.999992870949
0.999988788523
0.999993402719
0.9999977047
0.999998646295
0.999985363234
0.999985402291
0.061514048619
-1.68406630066e-28
1.10932437879e-07
0.999987626783
0.999987405861
0.859142456039
0.858154616133
0.998247764253
0.999983059273
0.999979761025
0.999981354246
0.997739219071
0.842713059761
0.997346143305
0.997291798017
0.0597343363761
0.0615396821813
0.000309983101945
0.000308319811313
0.0600569393033
0.000196366495609
0.998109174801
0.998010374843
0.852417877788
0.854057055847
0.998086815421
0.851899559597
0.99805138312
0.997929866991
0.997879546122
0.850940094118
0.850068684147
0.997821856484
0.850575339043
0.997975186376
0.997733651223
0.99784429313
0.850399549019
0.850168310556
0.997744079404
0.850464806976
0.99784386462
0.99787536148
0.84985204614
0.848699815654
0.997714325637
0.850351408119
0.850049518989
0.997855639977
0.997248976687
0.846496576365
0.845250476248
0.997333960547
0.847793994908
0.997271379231
0.848514761617
0.057134308974
0.000148049965913
0.0557090674472
0.056529391446
0.000140912159386
0.000146568435585
0.0624862855593
0.000371417008177
0.000380305214049
0.0633337873271
0.000371125607207
0.0625179919915
0.000314813792263
0.998065431275
0.998112039311
0.859222460156
0.859021400366
0.99797659645
0.998161687129
0.859166326202
0.998040440845
0.997911918655
0.858796454929
0.858613852457
0.997939525477
0.998024744333
0.858972479515
0.858492531544
0.857795988109
0.998195927975
0.998164472916
0.857884136708
0.998143492926
0.858312899902
0.997958474129
0.84848250375
0.846339589721
0.997772382229
0.846831985191
0.997987718374
0.843900400772
0.997766837347
0.997925361477
0.84499899574
0.840859544345
0.997969032661
0.997728719449
0.842272461743
0.997298123445
0.997262369171
0.84442175223
0.842898551694
0.840564465183
0.997420403401
0.842333566162
0.8392447456
0.838251283871
0.997248286906
0.997432656929
0.840163787831
0.997408566556
0.841311838493
0.999999181361
0.999980593062
0.0636897173829
-9.98528049851e-28
0.999989965444
0.855746003609
0.999980550332
0.999980757079
0.840770661419
0.837783538527
0.838294202921
0.99998146455
0.999982167286
0.838503745593
0.840000309636
0.0583298240427
0.0642686682624
0.0649247573855
0.000291462130208
0.000330955212866
0.000251824410924
0.0653145072556
0.0652489277566
0.99810994265
0.998148669402
0.855964551798
0.853308844205
0.998123787233
0.853854824686
0.998108017735
0.997479707717
0.997837083035
0.838912833365
0.839445047181
0.997698795779
0.997629284282
0.838241829797
0.997138574649
0.997127974907
0.839324347182
0.837211381392
0.997310473344
0.838158230088
0.996936430664
0.996906257457
0.996529722468
0.83880521475
0.837554227806
0.996646740835
0.838391188293
0.996662218007
0.996597827779
0.996543225489
0.838683657168
0.839231344473
0.996576125891
0.838785881211
0.996607876124
0.996691124665
0.996965193552
0.839127748358
0.83955953261
0.996844160975
0.838858094533
0.99676049276
0.999983256796
0.999985340503
0.999985112312
0.999993019603
0.0427475828645
0.0477891956276
0.0448009152012
0.0486074476278
0.0475441482709
1.46616866905e-08
1.13833051293e-05
4.14838835273e-07
6.58538260176e-06
-4.05772999395e-27
3.44325486172e-07
0.999990383666
0.99999213997
0.898495612415
0.898870121063
1
0.89922815655
0.999988755217
0.9999856486
0.898136279895
0.889111267758
0.999983868798
0.99998146273
0.999977581625
0.898355024508
0.897736974025
0.888822846127
0.885090986343
0.999970297485
0.999963848856
0.894574736894
0.868577244136
0.88174292936
0.866629559481
0.999984012794
0.99998984538
0.887245938166
0.883570191838
0.883387786879
0.999983277111
0.999988656131
0.999987484717
0.880825653693
0.868127920251
0.880924695789
0.871056095323
0.880538941208
0.871121736449
0.0413600362217
0.0408717803128
0.0424973061943
9.49878973659e-06
5.54767628072e-05
4.53961316462e-06
7.66570194259e-06
0.000194196790343
0.000584992599839
0.000180159343426
0.000602031384043
0.041136800984
0.0426448312001
0.0448634031496
0.0441438355873
0.0461331790923
2.52845542181e-05
7.48846168245e-05
6.38811775356e-05
0.000114181554172
0.0509254567012
0.0486425418908
0.0513842435308
0.0002035671986
0.000555938877367
0.000201866560589
0.000406036202529
0.0465276060759
0.0461610214272
4.63463217868e-05
4.71660317433e-05
4.97793332227e-05
0.0510940862326
0.0480206938302
0.0502421137257
9.14020262168e-05
0.000179051440268
5.91896847174e-05
7.85232288424e-05
0.998917372579
0.998805932044
0.898273692701
0.898813359327
0.998804993084
0.898653356957
0.998904617171
0.998904674823
0.998765708618
0.898960985428
0.898685312507
0.998791553646
0.998908337342
0.898772984373
0.998823848589
0.998754748847
0.899385916362
0.899853817796
0.998789504994
0.998783086198
0.900103978217
0.9986680134
0.99865508137
0.897598226646
0.895004232117
0.998755016657
0.998526061917
0.894709761317
0.998505699304
0.998338217555
0.891994690735
0.888765190008
0.998402245749
0.998452822146
0.891631428584
0.998507710047
0.998653999518
0.898752517102
0.895015083597
0.998671432885
0.99850421472
0.894836275437
0.998558420949
0.998902211543
0.898537484698
0.892736861464
0.998747324345
0.998650549642
0.894223819043
0.998379918695
0.998334752302
0.891811169776
0.888276192718
0.99837570836
0.998332946711
0.891369156362
0.998429553502
0.998399021808
0.888497581966
0.886956027223
0.998524351455
0.998356825332
0.890264286334
0.998702129362
0.99899863827
0.889269540576
0.889148167823
0.998943920447
0.998733624906
0.883750599123
0.998618604689
0.998600573811
0.879971861048
0.865974837153
0.998810954243
0.875150398623
0.998431113016
0.998530868373
0.998464333412
0.885179466158
0.877991586887
0.998568340982
0.998440048275
0.880815731737
0.99846108012
0.998315140949
0.866605751967
0.872318709801
0.998387991972
0.874195677988
0.998320690293
0.998356623879
0.998342453614
0.886579360967
0.886153804798
0.998353630341
0.998336435734
0.885548609617
0.998423380734
0.998491792518
0.885245579324
0.882784113939
0.998405795178
0.998529919791
0.884214314016
0.998516886864
0.998712733159
0.883198813053
0.88459903921
0.998659339483
0.99853780872
0.8845928422
0.998657874941
0.998583907495
0.87755106248
0.880254192865
0.9985771245
0.998649193612
0.877438913253
0.998640784566
0.998478054493
0.873012676063
0.869244892771
0.998543816966
0.873322563815
0.998600789693
0.998852695423
0.998863203611
0.88066251541
0.878202528488
0.998816110618
0.998956303892
0.877790735671
0.99884328889
0.99895499412
0.87028567451
0.874622382361
0.998958300179
0.874037643039
0.998829185664
0.999055452244
0.998890275287
0.877909469927
0.880207548348
0.999034643286
0.998889461457
0.877461390341
0.999090523432
0.874514933194
0.999077912725
0.999975269648
0.999985529909
0.999995368367
0.999996661946
0.999994773011
0.999985614893
0.999992082687
0.999991340808
0.999993670946
0.999996681089
0.999995713784
0.999988253898
0.999941252711
0.999992034813
0.999972016872
0.999927914114
0.999952342683
0.999985505057
0.999971909385
0.999953580808
0.99998697568
0.999934940567
0.999946244975
0.999980962426
0.999991973831
0.999992588476
0.999991306592
0.999985858767
0.999977057557
0.999975994334
0.999983321789
0.99999208434
0.999994371009
0.999996433842
0.999996693384
0.999990484189
0.999986287832
0.999975329179
0.999979845553
0.999991758577
0.999998418391
0.99999845379
0.999997351694
0.999987857134
0.999998296896
0.999998344369
0.999996693633
0.999987428928
0.999911246879
0.999996892517
0.999942308419
0.999848411003
0.999911536158
0.999910314374
0.999908474124
0.999954729134
0.999836867403
0.999976917302
0.999976189404
0.999911222474
0.999924768653
0.999969250302
0.999950516995
0.999946815622
0.999977529806
0.999993462347
0.999991235359
0.999974439538
0.999965710984
0.999978742115
0.999987069271
0.999985299724
0.999991006646
0.999991741966
0.999993824157
0.999996173842
0.999997045391
0.999996942513
0.999995721596
0.999994048466
0.999997300196
0.999998870094
0.999997760759
0.999992620694
0.999931380229
1.00001460539
0.999968066927
0.999779504901
0.999854365086
0.999948959389
0.999945358614
0.999969428399
0.999958039548
1.00001730743
1.00000034414
0.999928721366
0.999904628229
0.999952446834
0.99997869236
0.999981207266
0.999993265238
0.999997313278
0.999998608556
0.999998826227
0.999998601259
0.999998398659
0.999997583262
0.999997952266
0.999998535785
0.99999800457
0.999998847782
0.999999906777
1.00000010692
0.999999969453
0.999999595224
0.999998896547
0.999999117516
0.999998306582
0.999999409938
0.999999985429
1.00000010705
1.00000005592
0.999999843778
1.00000000406
0.999999213424
0.999998848899
0.999998553938
0.999975400195
1.00002446226
1.0000080257
0.999911223277
0.999803151156
0.999934165717
0.999970507224
0.999959384549
0.999959907496
0.999970685568
0.99996885452
0.999969291756
0.999967447394
0.999962525908
0.999967162066
0.999971329559
0.999955059096
0.999982030276
0.999977205072
0.999962485582
0.999952789308
0.999968247798
0.999978563422
0.999976802467
0.999970641285
0.999960302904
0.999950864542
0.999977600842
0.999975667425
0.999982700882
0.999993911801
0.999992543028
0.999979945329
0.999958613639
0.999946373303
0.999952384663
0.999988642627
0.999992301112
0.999991392101
0.999980412503
0.999948033615
0.999944313173
0.99996012803
0.999972468808
0.999970568156
0.999974764453
0.0602937646123
0.0626596872169
0.0664827141188
0.0645364084169
0.0626748028361
0.0635137250102
0.0653040260011
0.0677868774669
0.0536900313993
0.0587885026693
0.062404426874
0.0643230513347
0.0664188628667
0.0624499775103
0.0637934545554
0.0648738563219
0.0655495444069
0.0661243331228
0.0531622598191
0.0583760463
0.061343738145
0.061460896039
0.060042659636
0.0606600355056
0.0621252761789
0.0651932529896
0.0669518229228
0.0669166054201
0.0554957172885
0.0567691212229
0.0572881397812
0.057744430118
0.0591990687301
0.0616237255285
0.0644404194412
0.0661077214144
0.065924601787
0.0575719223492
0.0584783776246
0.058398185783
0.0620781870316
0.0641559779879
0.0649904619562
0.0646303820313
0.0650524762575
0.0650157126755
0.0644179458291
-2.67127423119e-24
3.92142246813e-05
6.91496389163e-05
8.58745797985e-05
2.00174848307e-05
3.29868956759e-07
3.6096341949e-07
-6.32147656104e-29
-1.6176697045e-27
2.70525758847e-05
5.69926322401e-05
6.50562385677e-05
6.91090992081e-05
2.10737171897e-05
9.1422912989e-25
5.86610732535e-05
-3.23117426778e-26
-4.98676686045e-26
-6.77381261265e-26
2.78699181081e-05
5.07829650011e-05
2.32644547281e-26
8.13210375258e-08
1.17549435082e-38
1.23609938503e-07
-4.13590306277e-26
4.66811407666e-05
-5.81504784057e-25
-2.03988815869e-24
3.62687806178e-05
-2.1084126254e-30
-1.32445744229e-29
-2.21598647036e-28
-3.41791159566e-27
-3.11257639212e-25
-4.4347070772e-24
-6.16342623806e-25
-1.27947994825e-24
3.60989279089e-05
-2.72586925467e-30
-3.10369054297e-27
3.39664511049e-05
-1.30730736209e-26
-4.20804794858e-26
-2.21664030026e-25
3.64598833445e-05
-9.17960748858e-28
-4.70135897233e-26
3.85163749468e-05
0.999971132953
0.999981274647
0.999981544596
0.999935979354
0.999990654018
0.999892226749
0.99995819674
0.999993740358
0.999956115392
0.999949675875
0.99999411772
0.999993805483
0.999984694685
0.999984628249
0.999978309493
0.999982207226
0.999981380797
0.999969752
0.999962367171
0.999982833481
0.999947691888
0.999932864831
0.999946899235
0.999933084629
0.999933323733
0.999933083108
0.999933593737
0.999933323734
0.999985691434
0.999862915802
0.999966066811
0.999885002889
0.999985330701
0.999828243375
0.999975932929
0.999995094085
0.999992341848
0.999990745892
0.999996720189
0.999999487124
0.999995006509
0.999994985349
0.999916560836
0.999964165356
0.999949060924
0.999813763891
0.999968553019
0.999919895987
0.999970870448
0.99998503867
0.999933873928
0.999950887524
0.999988972624
0.99999425783
0.999989359632
0.999999683083
0.999994838957
0.999973534915
0.999999963224
0.99998637977
1.00003372604
0.999993286764
1.00004714639
1.00000985034
1.00001128213
1.00000903988
1.00005965319
1.00003770733
1.00008280225
1.00005741777
0.999998584508
0.99997441881
0.999995748546
0.999990311219
1.00001157538
0.999986876915
0.999996618719
1.00001316027
0.999998999952
0.999999960512
1.0000272119
1.00002484235
0.999999619685
1.00000100874
0.999787148757
0.999897066936
0.832663633158
0.826342266879
1.00000895867
0.999992080345
1.0000042802
0.831572340883
0.824349738488
0.826340974843
0.820003449512
1.00002317109
1.0000115939
1.00001201041
0.824032326827
0.828669487811
0.819444713405
0.821956770928
0.999987136866
1.00000546086
0.999992762887
0.831107102025
0.839489404554
0.824224574919
0.835767205597
0.999810157793
0.99995305856
0.999892696245
0.842775413218
0.851415277467
0.838404008127
0.842978937938
0.999849256473
0.999880980789
0.999898481144
0.852926677465
0.851670604405
0.842962386209
0.842870050444
0.999972885783
0.999945179608
0.999976360556
0.848762156101
0.838842363173
0.841931014466
0.839179498079
0.999970157528
0.999980176575
0.999978087188
0.836666683823
0.83595184867
0.838315802579
0.834918862609
0.999778069995
0.999967208613
0.999922948427
0.845167092422
0.822700648422
0.839668131724
0.821224842588
0.999959543566
0.999959298436
0.856525734879
0.833292711396
0.860797585423
0.844035809775
0.99996513497
0.999961189821
0.999962178517
0.828949221027
0.827091537009
0.840544483067
0.834791616172
0.999969345654
0.999953981648
0.999944622934
0.826384354185
0.820226201154
0.832993862056
0.827866149753
0.999968731898
0.999938921477
0.999943430401
0.818557283772
0.820077070217
0.826857341575
0.831037103289
0.999968294797
0.999954210648
0.999963573387
0.823362055865
0.835743016709
0.833892400612
0.840610245403
0.999962718206
0.999976587279
0.999976900863
0.839283777281
0.841065028701
0.842189941299
0.841228097172
0.999964487493
0.999979014976
0.99997855631
0.841174355451
0.84223345081
0.839740796365
0.838164100488
0.999970116801
0.999981117941
0.99998137578
0.841590340894
0.839441203665
0.838908396973
0.839785548468
0.999970198047
0.999980386475
0.999978236681
0.838790100653
0.833097953265
0.839642841258
0.834635570346
0.999941250728
0.999964697095
0.999968697715
0.838010548438
0.823149836887
0.839343768459
0.825105485814
0.999978574933
0.999984829945
0.999981419978
0.862970886259
0.848038252225
0.867681777397
0.85721523778
0.999970354873
0.999975952167
0.999972282914
0.844242552794
0.838089034811
0.853673527637
0.849351993094
0.999950698544
0.99996362456
0.99996211025
0.836545551441
0.832996212115
0.848790475049
0.85021910112
0.999957286157
0.999962966552
0.999968468514
0.832811785113
0.834960812449
0.850484963401
0.848347425947
0.999976826275
0.999977572969
0.999979227457
0.836955990429
0.841639321247
0.847405627568
0.845027744314
0.999979487791
0.99998187284
0.999977668664
0.841590499873
0.840323141049
0.844952105263
0.84324882265
0.999975844146
0.99997727087
0.999973579167
0.83965680129
0.839715002912
0.843258570708
0.843180933771
0.999966782859
0.999968922846
0.999961355357
0.839809162308
0.839668992665
0.842213967286
0.83837739832
0.999953391414
0.999953822525
0.999952082278
0.839182404767
0.83478103758
0.837470666414
0.836515854892
0.999964693075
0.999954085715
0.999972350018
0.839335725458
0.827448290021
0.841590710587
0.831710987049
0.86828228951
0.858511423127
0.999975435063
0.999977613029
0.855726771874
0.85282087622
0.858309548378
0.999977661742
0.999977542097
0.999980042775
0.852388734516
0.85356085271
0.85883336296
0.858546717741
0.99999031299
0.999985347132
0.999992313258
0.85341013322
0.850480145837
0.857423318207
0.853223214312
0.999994523917
0.999995075684
0.999994780914
0.849114610996
0.84608160836
0.852433470758
0.851709256446
0.999988481711
0.999993649858
0.999987067594
0.846025506522
0.84481568467
0.851407317986
0.847686271561
0.999970804936
0.999976594131
0.999962044709
0.843641988012
0.841240869327
0.845597592216
0.841027347463
0.999949320964
0.99995002391
0.999947997146
0.840572075358
0.839492271385
0.841152351492
0.841499404656
0.999947512443
0.999948343906
0.999951651138
0.83903418402
0.83774096913
0.841573979822
0.839540887638
0.999976313639
0.999959810524
0.999984285524
0.843151659817
0.833610331565
0.845616192069
0.8354078749
0.999991953661
0.999992144845
0.856567065399
0.852636283126
0.850133267044
0.999992239786
0.999992468737
0.999993443808
0.852275423699
0.852846985512
0.850188505234
0.850302444387
0.999987353975
0.999993240994
0.999991321045
0.853752836803
0.848124631961
0.851208126845
0.844205383233
0.999965259647
0.999985940098
0.999976590678
0.845893674801
0.840643934816
0.841663962325
0.838432405069
0.999942361264
0.999962637575
0.999955504533
0.840433785167
0.840830201084
0.838537672977
0.839150460111
0.999951402075
0.99995530892
0.999958292123
0.84120495585
0.838927266405
0.840210829791
0.836520288604
0.999985353614
0.999965128582
0.999988227842
0.845317960076
0.835507895706
0.843347709026
0.835116979991
0.999975428675
0.838150532281
0.999970305327
0.838336691436
0.838712037791
0.99997180717
0.839535830784
0.835839888607
0.999989050127
0.842472783958
0.834651689989
0.00054568877827
0.000496925510369
0.000675263714124
0.000693600238399
0.0588448888608
0.0600578316209
0.000633444704939
0.000570543943362
0.00102763514176
0.00100315645348
0.0613714050217
0.0612167075477
0.0621361510757
0.00077005263839
0.000984249765208
0.00126305898283
0.00157245381979
0.0642781838269
0.0637563833467
0.0660052528662
0.00146350149189
0.00106769424732
0.00169890353595
0.00139227745219
0.066161661603
0.0674773762942
0.0660759183774
0.000576817145332
0.000301103278423
0.000970693802403
0.000798905676811
0.0630402308151
0.0647140667529
0.0636006161016
0.000187898680451
0.000176408494237
0.000424596264551
0.000329135499501
0.0630524382337
0.0633417848788
0.0635940803253
0.000276326336472
0.000336143174886
0.000393825558419
0.000357132086715
0.0642965068654
0.0640695757797
0.0646238497287
0.000363275088328
0.000359980390919
0.000336486396042
0.000289673438706
0.0658816688353
0.0652471240773
0.0659560681162
0.000249550873918
0.000145943961057
0.000173038278332
0.00012766453108
0.073471986016
0.0661106051712
0.0722033697017
0.000167773167742
0.000367619332212
0.000165995967408
0.000562618014124
0.0565116080945
0.0536904813298
0.0564242645529
0.00108437401728
0.00124316385719
0.000959742976122
0.00100113832956
0.0607984681314
0.059135166047
0.0611578949677
0.00123589209383
0.00119171080067
0.000814114825483
0.000842663824097
0.0633415459451
0.0626438009392
0.0634717470997
0.0013183385286
0.00150385331807
0.000947645457096
0.00102936276856
0.0661433418395
0.0637062724524
0.0637083460337
0.0012599756003
0.000869479527703
0.000907312605544
0.000710027413748
0.0647598406253
0.0633067953595
0.0622141217532
0.000540170589546
0.000682119779836
0.000474204740728
0.00053419890073
0.0627372526785
0.0606066436871
0.0613241834018
0.00132406496636
0.00076875755137
0.00129771479636
0.00101093245207
0.0643343872931
0.0634935689319
0.0647143743346
0.000363229167716
0.000323238493473
0.00039024722676
0.000251146231239
0.0653186479338
0.065486304541
0.0660958686135
0.000318231583794
0.00027096999151
0.000248584404894
0.000236948896846
0.0663935986172
0.0663193386145
0.0670733852843
0.000176680156007
0.000141810908654
0.000199908753516
0.000166215665702
0.0721125632617
0.066525345663
0.0719446131397
0.000181100237033
0.000504643188133
0.00020287863525
0.000434319284802
0.0556648515199
0.0521539751326
0.0544641905782
0.000667049064137
0.000780981067691
0.000462880991137
0.000664218120745
0.0602105413059
0.0569320755119
0.0582790310351
0.0004819245488
0.000536966055842
0.000407362722477
0.000433627083666
0.0617718194839
0.0588820775065
0.0589429281201
0.000603202278842
0.000621191034326
0.000458194507866
0.00042500381817
0.0606060959025
0.0587099736191
0.0583261586298
0.000579750842338
0.000504223561838
0.000379185703291
0.000347889951807
0.0600040135409
0.058230485588
0.0587749410587
0.000456398460392
0.000435394088481
0.000350223549627
0.000350834014235
0.0615181542589
0.0597332634421
0.0607614384257
0.000411783272028
0.00047196927575
0.000306793665101
0.00042791457205
0.0634475872131
0.0610607548143
0.0621678840135
0.000937601712274
0.000724891640333
0.00112119357245
0.00124467221537
0.0663345025536
0.0646437214264
0.066225190172
0.000268289771513
0.000201550705229
0.000409736414515
0.000166665062548
0.0674986434809
0.0668783879119
0.0674178978502
0.000200681834205
0.000187511703245
0.00017135831965
0.000175194174981
0.0718186303656
0.0667553213887
0.0711781615592
0.000242873482922
0.000484232515849
0.000251584725898
0.000551718685758
0.0563656661419
0.0550695283648
0.000287947522135
0.000292824126211
0.000186009066349
0.0570122920432
0.0556053460696
0.0562323324942
0.00029118329928
0.000260424026372
0.000183577538638
0.0001792210983
0.0574219230823
0.0569949648322
0.0574272262706
0.000244230865709
0.000235903532869
0.000186889101627
0.000194356965829
0.0583746891811
0.0577119506529
0.0582216847858
0.000249104199936
0.000260327585909
0.000211743204385
0.000253448489701
0.0601962715477
0.0590481131558
0.0601905731367
0.000254360309041
0.00031271513046
0.000274563917098
0.000250455580227
0.0630021144389
0.0616489322644
0.0629382890047
0.000318965107873
0.000357402399764
0.000248024847558
0.000280484645094
0.065482870469
0.0640242655076
0.0648663144988
0.000325735726178
0.000254900383644
0.000293240077164
0.00028201520573
0.0668234875038
0.0653938876417
0.0663823191496
0.000192988472378
0.000194401030071
0.000226704613011
0.000226634402653
0.0702219159642
0.0651712036096
0.0691952241807
0.000251563447333
0.000560762867858
0.000230392313489
0.000533453482233
0.0581615506407
0.059088060526
0.00015716923989
0.000158282624592
0.000155944953249
0.000145800152515
0.0586004450492
0.0594585485418
0.0597401059626
0.000161178964028
0.000307053523383
0.000141508886408
0.000330980082964
0.0601578243408
0.059262223757
0.0611724234035
0.000705764565423
0.000464400868024
0.00100303727844
0.000505519475437
0.0632781125661
0.0630622040243
0.0640738753855
0.000275207864558
0.000302675490599
0.000246831073714
0.000275609999074
0.0647857718859
0.0646813139943
0.0650541511083
0.000289622224791
0.000277213228122
0.000261672748063
0.000251750870594
0.0661494892159
0.0649375833308
0.0661619784506
0.00020950480036
0.000232738351821
0.000194876584151
0.000240347957295
0.068162666543
0.0644249324824
0.0676550504749
0.000252359696933
0.000531079002233
0.000289136829996
0.000539779147511
0.0646022575476
0.000281663305451
0.0652173974083
0.000258829161913
0.000244297777453
0.000199540010162
0.000182628402214
0.066162622441
0.000187387088093
0.000220123951985
0.000144429015823
0.000145438659699
0.0674870691434
0.000286808495048
0.000557475958765
0.000215091327521
0.000609373611079
0.997858053914
0.997905122308
0.832684661324
0.829239944507
0.99765568331
0.829260498035
0.998134892834
0.997696664058
0.997551781865
0.828091634713
0.825554094607
0.997655717742
0.99755753776
0.827141486136
0.997262312017
0.997667151213
0.829676268144
0.828522196554
0.997477289319
0.826951296158
0.997413626739
0.997123323406
0.997303961908
0.827484494277
0.821885946584
0.997140188336
0.824853004291
0.997282485357
0.997457597736
0.99750659098
0.827616337164
0.825457638887
0.997584650299
0.997396895387
0.825733922127
0.997341944629
0.997125651616
0.820023121068
0.823190868046
0.997274897677
0.997243202073
0.823118654131
0.997201615269
0.997328472028
0.824615431679
0.821184779516
0.997201781605
0.821788140862
0.997312513729
0.997107662831
0.996774099599
0.826481193037
0.825596446497
0.996790151403
0.82360090484
0.99718378107
0.997224307653
0.997053863828
0.81925560121
0.819674425367
0.997261706261
0.997021674184
0.819883723668
0.997094855569
0.996662719708
0.823081956761
0.820565358853
0.996765645865
0.996931343876
0.821444064522
0.995714017197
0.996090205335
0.833405986006
0.827786225573
0.996176339156
0.830415870329
0.995583129388
0.995634315145
0.99554960994
0.836020726492
0.836958795872
0.995666827975
0.833296420942
0.995478089487
0.996129803625
0.996306850697
0.825416827674
0.827434920889
0.996321484335
0.996085473308
0.828304771411
0.996114411297
0.996082123072
0.835585083531
0.831331931988
0.996173798327
0.996031952694
0.831565473818
0.996509319503
0.995895100206
0.845825168011
0.840321416826
0.995911073805
0.843296692484
0.996595109838
0.997280572934
0.998004380886
0.848598915343
0.848011228369
0.997914525495
0.845668476852
0.997382691117
0.996851071385
0.996377255345
0.838709983984
0.8403462949
0.996404515183
0.99686212641
0.841137254878
0.997411695736
0.997784366011
0.84523266038
0.841782300399
0.997967424115
0.997365814888
0.842858616325
0.99858282899
0.99838718362
0.854325928235
0.849185686291
0.998318794165
0.849984621846
0.998638069708
0.998622390719
0.998646067833
0.853479559307
0.847638396076
0.998576407876
0.849196512548
0.998688268114
0.998761448291
0.998168354879
0.846325484581
0.843326051987
0.998402554536
0.99853929881
0.847266043315
0.998842893437
0.998883413148
0.845505789727
0.843170316099
0.998813358604
0.998842568355
0.846804597917
0.998362586026
0.998547415764
0.845182634144
0.845119789651
0.998475374099
0.842133360949
0.998397564913
0.998197971874
0.998079519047
0.841898306599
0.837605614361
0.998092277845
0.8396728611
0.998210121934
0.998596250829
0.998848213874
0.843752449313
0.840609975156
0.998725328874
0.998746141827
0.8414898514
0.998417708783
0.998332845971
0.838714916598
0.839936800992
0.998244100045
0.998552567739
0.84007012291
0.997896041363
0.997910383142
0.835389749014
0.836268791635
0.997955401783
0.83525434893
0.997818184913
0.997833572812
0.997670961165
0.835386998667
0.835181755929
0.997739889575
0.8353546369
0.997741852289
0.997914585489
0.998076496074
0.837635167429
0.837746514443
0.998023954255
0.997916785367
0.836460981382
0.997788558708
0.997558949942
0.834477104535
0.836848678898
0.997667466496
0.997732849379
0.835484785383
0.996344801902
0.997285350773
0.835359566818
0.839298618853
0.997358302994
0.837000044637
0.99596822473
0.993239028552
0.98904392598
0.785446050175
0.81544788136
0.813019575459
0.991927577849
0.987442442491
0.996325878416
0.99721540452
0.839619137764
0.834429579535
0.997341158406
0.996274934442
0.833682276214
0.992981717738
0.994691168956
0.81276640885
0.789227088971
0.993573957445
0.787269839199
0.993937386162
0.998024780771
0.998342811521
0.846118831756
0.856717440271
0.99811620772
0.848136777463
0.998205280381
0.997789866722
0.997657041906
0.839576622625
0.836051707183
0.997868624164
0.997609959147
0.841530094014
0.997996014198
0.998220800585
0.859023671549
0.85489515651
0.998100221799
0.851379910497
0.998152908321
0.997765219305
0.997740948416
0.839436771233
0.84906112583
0.997577641204
0.997899371292
0.844916668916
0.997262377436
0.997430755411
0.826960901915
0.832692652197
0.997232030112
0.997413921034
0.830256027173
0.997175706845
0.997146358874
0.826754969259
0.829524644237
0.997195482056
0.997085710044
0.829709364474
0.997179598078
0.997554466317
0.835602925024
0.83803793046
0.997358710073
0.997372223474
0.833736025959
0.997028653185
0.996894213449
0.831536045239
0.836249273002
0.996811188036
0.997166334478
0.832683922618
0.996678732796
0.997050622903
0.825030539063
0.828367879776
0.996839819773
0.996943104674
0.826435901097
0.996396748052
0.996377710455
0.822781526411
0.82173347296
0.996584718362
0.996157614618
0.823871606531
0.996148065091
0.996561968164
0.829920251584
0.831101656716
0.996510985956
0.99616465015
0.827840611016
0.995822789041
0.995463876026
0.823921604119
0.829296504743
0.995557825742
0.995789222338
0.825921776473
0.995900972408
0.996227732383
0.817025640138
0.819981837019
0.996130954856
0.995996970673
0.818280406548
0.995835599097
0.995867348677
0.817881298989
0.821965987266
0.995960145308
0.995844314854
0.819242019126
0.995314792883
0.99526364848
0.822558119221
0.827194690108
0.995309083278
0.995288872542
0.821552987003
0.995370268694
0.995572739527
0.825312624044
0.828734601042
0.995528025769
0.995383848163
0.822781176401
0.995991856799
0.995856651186
0.827401503352
0.825659214993
0.995887060256
0.995888179679
0.829821223655
0.996165510523
0.996324869104
0.831563127689
0.837302377881
0.996053442691
0.996388544311
0.833747752984
0.996114325585
0.995853494878
0.828614793294
0.837218259705
0.995777085437
0.996219757347
0.832537118995
0.996496506584
0.99704475785
0.838833867296
0.839652719163
0.996871097929
0.996648024489
0.836009719417
0.996776068178
0.996612556261
0.84148758425
0.840106056071
0.996821390909
0.996616765407
0.841679291092
0.996881410664
0.997167441754
0.841236873931
0.840220892345
0.99697799426
0.996990913017
0.841315280497
0.997131348701
0.997229938871
0.841775008354
0.842717073433
0.997118241834
0.997233358268
0.843102343092
0.997101576468
0.99715401353
0.841234821109
0.842288354638
0.99708870786
0.997219223924
0.84247959618
0.997329995319
0.997401653859
0.841820894582
0.839139973117
0.997683206269
0.997137309582
0.839132541576
0.997548806098
0.998233399784
0.842002693421
0.839907584922
0.997960595245
0.997789138752
0.839218863031
0.997169522067
0.997105607737
0.839538471938
0.83826317224
0.997100359673
0.997125577232