/*--------------------------------*- C++ -*----------------------------------*\
| =========                 |                                                 |
| \\      /  F ield         | OpenFOAM: The Open Source CFD Toolbox           |
|  \\    /   O peration     | Version:  v1906                                 |
|   \\  /    A nd           | Web:      www.OpenFOAM.com                      |
|    \\/     M anipulation  |                                                 |
\*---------------------------------------------------------------------------*/
FoamFile
{
    version     2.0;
    format      ascii;
    class       surfaceScalarField;
    location    "7.4";
    object      phi;
}
// * * * * * * * * * * * * * * * * * * * * * * * * * * * * * * * * * * * * * //

dimensions      [0 3 -1 0 0 0 0];
oriented        oriented;


internalField   nonuniform List<scalar> 
92311
(
0.203758153588
-0.000270488959165
-0.000793406569146
-0.203417833017
0.000723574292451
-9.24312131971e-05
0.203825591245
-0.000300333073577
0.000325510127113
0.20389468384
-0.000573272954076
-0.000817494932009
-0.203563021257
0.000788835258497
-0.000121434839443
0.20387581561
-0.000356798581055
0.000404944042464
0.204456986798
-0.000410840492248
-0.000217042840373
-0.000963823915691
-0.203995510985
0.00101339888275
-0.000355504278534
-0.00010090378583
4.10095768116e-06
7.69683385791e-05
0.000170814942081
0.203891687632
-0.000485576492862
0.000601168575777
7.64296721176e-05
0.0513119569553
-0.000166117340373
-0.000144768919698
-0.000169935353951
-0.00015069034166
-0.000334994003529
-0.0511472087636
0.000390859530156
-0.0513353659733
0.0512614154122
3.46007010946e-05
-3.68345165487e-05
-2.3682029984e-05
1.98743694553e-05
-0.000227188238443
0.000311210813582
0.00022062308825
-0.0112190065765
0.000195659902995
0.000215370083787
0.000181424780555
0.000858488539336
0.00700803566569
0.00416869847807
-0.0016287965489
-0.0104487907899
-0.00236596527467
-0.00195812036509
0.013778887064
-6.35928226721e-05
-8.03000152708e-05
-5.69646573487e-05
-7.72033115639e-05
0.00127206232026
-0.111710036486
-0.00479120944242
-0.00783500462854
-0.00898746207549
-0.0599479584644
0.0230750050742
-0.019589817724
-0.00643346627846
-0.000100425222341
-6.00556263253e-05
-5.45853781782e-05
-0.00010368510186
-0.000271897711118
0.000350151928747
0.000227757728786
0.0122258352057
1.27333215887e-05
-1.55349821667e-05
-0.0122302271313
0.0122159488512
-6.7478580394e-05
5.77943528624e-05
-0.0122114578489
2.63058102031e-05
-2.11183278725e-05
0.000209416579646
6.5343665661e-05
0.0510815974797
5.46194545606e-05
4.35070658493e-05
3.15612078006e-05
-0.000147822708447
8.59038646746e-05
0.050978774741
0.000104977782719
6.84070039007e-05
8.51117695595e-05
-0.0511590024642
0.000215970111736
1.05171187841e-05
2.93220836338e-05
0.0121738426934
1.30124867933e-05
-1.06333673317e-05
6.911836511e-05
0.0127303123707
-6.44397828141e-05
9.20276982642e-05
-0.0127617031254
0.0127114384148
8.8231025369e-05
9.88448994099e-05
-0.0127435454616
-0.000450221814322
0.203826875531
-0.00156185825792
0.00132501185071
-0.203139807084
0.203767463084
-2.8965451364e-05
0.000258612407723
-0.000170813336281
-8.75710701182e-05
0.203753201942
0.000505012394256
-0.000402584500155
-0.000988761063725
0.203903841899
-0.00152013702165
0.00136396683718
-0.203209015921
0.203752601786
4.17023600361e-05
0.000176168224494
-0.000123065890595
-0.000173194097716
0.203750145131
0.000458068500449
-0.000369461223739
-0.000463795299422
-0.000548469195951
-0.00054574428865
-0.00155174108356
0.204256758842
0.00146783235405
-0.203146631038
-0.000457001699555
3.52076867679e-05
-7.4852851805e-06
0.000109781953911
3.10985936949e-05
0.203624800858
0.000165347510759
-2.52277097611e-05
0.0510009898754
-0.000204044610168
-0.000175730100971
-0.000200190068521
-0.000178973032933
-0.000375677642054
-0.0506978429939
0.000367726886838
0.0509111932832
0.000134789229929
4.21162691117e-05
3.24367301939e-05
3.54176101984e-05
2.76584022899e-05
-6.68874211619e-05
-0.00221410384653
0.000786200004977
-0.00821398467432
-3.0417260373e-05
-4.41430866002e-05
-1.67051856069e-05
-3.03128159843e-05
-0.00068506572684
-0.0115973812059
-0.0122869606943
-0.0105886562399
-0.0842568633487
0.0752671460379
0.0409728782659
-0.0680143091291
-0.0125064602949
0.00776195484336
0.00498679962483
0.00615389868607
0.00445698927267
-0.0449618657182
0.0184340377294
0.00895555599621
0.000292228801766
-0.00019488400555
-0.000198434922175
-0.000189557651518
-0.000206755524334
0.0512188695935
-0.000268889371864
-0.00019877269178
-0.000214105391507
-0.000195454545297
-0.000208897156303
0.0511679600284
0.000340635504554
-0.0509447788592
-0.000197263405302
0.000218718841482
0.0122199440113
9.55372605603e-05
-0.000134652670468
-0.0122022971732
-0.000211934565316
0.000227845925865
-0.0122382115135
9.30373879305e-05
-0.000120502871471
0.0122496981308
-0.000255616123435
0.0127638074798
-8.41646645028e-05
9.47193423385e-05
-0.0127174820984
3.94064924916e-06
1.6096463515e-05
-6.83639832028e-06
1.11651094647e-05
-4.60810828179e-06
0.0508362442933
4.76759446384e-05
0.0508053873517
5.86518125863e-05
6.86066270876e-05
7.80196024769e-05
4.63935981353e-05
0.000166289692569
3.19759930357e-05
4.1533777915e-06
1.75046284781e-05
-5.30614275446e-06
0.0507399298745
5.23598800732e-05
5.73297413761e-05
-5.25632297767e-05
7.20283505468e-05
0.0126956111014
-2.85916897844e-05
1.43540095357e-05
-0.0121293085019
-1.85006699079e-05
0.0121251013036
3.69957431965e-05
7.77347276549e-05
7.55831264564e-05
0.0126740601335
-0.012630201893
4.60301391938e-05
0.0126158756245
-4.07364108809e-05
4.11585325686e-05
-0.0139271316151
0.000119959722093
4.32733117082e-05
9.78322132381e-05
0.00402258769175
-0.00333121233462
0.00168886416227
-0.00394758287121
-8.62247805157e-05
-0.000141458914135
-0.000132719929033
-8.53216070114e-05
-0.00542130589769
-0.00387064530126
0.011319302458
-0.000439330657671
-0.0111823761517
0.00652430421093
-0.00364252384516
0.00726625554733
-0.0131585264767
-0.00433508111657
-0.000302672768562
-4.23742473314e-05
-3.13441814175e-05
-7.47575151819e-05
0.00369578197683
-0.00338297682174
-0.00527788525767
0.00281055938912
0.000443025209146
0.00012042074479
0.0128439573254
-9.99510917407e-05
-0.0128025283285
-0.012849109334
-0.000164867215906
-0.00012571264231
0.0128610405066
0.000133911728012
1.5198153681e-05
0.000193433961109
0.0122321594108
-1.9233879064e-05
0.000219366265438
0.0122118158941
-0.0122243120552
2.12679413777e-05
-0.012811205341
0.00013233004943
0.0122191238106
2.46688028762e-05
0.0128642775894
-0.000102872309699
0.0128652809669
-0.00010902472845
-0.000124889211683
0.000129392440376
0.00011404993582
-0.0128779371536
0.0128582405027
-9.65934172063e-05
2.30554568019e-05
0.000139777854054
-2.20610051509e-05
3.84300575035e-05
-0.0121957685377
0.01219157162
3.52552697989e-05
0.012846279897
0.000116974878143
3.50988385859e-05
-0.0001023234361
-0.0128270417435
6.0988901097e-05
-9.5564634841e-05
0.0127976076558
9.85779320782e-05
0.000101899743439
0.0128346051412
-8.59492339755e-05
2.8222458041e-06
-2.36738222364e-05
0.0121505760959
1.71704930582e-06
9.94066127227e-06
0.0121449457368
1.83541043972e-05
0.00010715001832
0.0121255497963
8.48265273063e-06
0.0128124344312
-7.74536083356e-05
7.31532842237e-05
-0.01277963929
0.0127474543693
-5.08545795339e-05
-2.24823281384e-05
-0.0121306987851
0.0121241175111
3.86473798391e-05
-0.0121115745812
-7.91565193273e-06
0.0121087159806
7.42685352298e-05
-8.38507829444e-05
8.88127634545e-05
-1.14599715385e-05
-4.86913603395e-05
2.29715081078e-05
-4.15947938127e-07
-6.83544767891e-05
0.00014478819861
-0.012729903343
0.0126955481411
8.27252514814e-05
5.35750075951e-06
-0.0121012641147
0.0121005928288
-0.0120861418976
0.0120859937318
8.8784495063e-06
0.00010620910703
8.97205436605e-05
-0.0127823634404
-0.000131790555171
-1.45801626295e-05
-0.0120928763095
2.04119936728e-05
-0.0127689782815
9.85432031394e-05
-0.0121117652835
0.00630431138974
-0.00365579286738
0.000243543843693
0.000247258175014
0.000236383571042
0.000243442778944
-0.0077317449962
0.00290242245289
0.0012105320965
-0.0112512144913
0.00249330904902
0.00831339022452
-0.00484423816045
-0.00334723693747
0.00739942219767
0.000205681967497
0.000188712519102
0.000207728130299
-0.00295154886899
0.00333353664609
-0.00523368392423
0.0057758477188
0.000209643384582
0.00021734902081
0.000226248831476
-0.010823133334
-0.00282063165456
0.00111137735759
-0.00936952149497
-0.00552461356131
0.00889586960141
-0.0113967577277
-0.00356896817525
-0.00153480000469
-0.000773289105296
-5.15549644612e-05
-0.000107272144331
-8.77184545693e-05
-3.21027084231e-05
-0.00504822274406
0.00161517882167
-0.00849304032212
0.00192911225217
-0.00820312264504
0.00243101869605
0.000835236175368
0.00277591581361
-5.07392012124e-05
-1.88721755236e-05
7.02718848311e-06
-1.65093057085e-05
0.00143418442782
-0.0057401815224
0.0026188385094
-0.00626597416936
0.00214806739072
0.00139690550572
3.44928201362e-06
2.0864414043e-05
-4.98324622197e-06
-0.00596734115407
-0.000915902469711
-0.00277159115018
0.00302453617433
-7.91666400648e-05
-0.0126829358599
-0.000252252668174
0.0127286695176
8.16429455627e-05
0.0126964678357
9.06814313631e-05
-9.42038523396e-05
-0.0126499396114
0.000241097478934
9.71529352241e-05
0.0122207156717
-0.000133312579019
0.000222132560407
0.0122088155986
-0.0121941784552
4.75425745091e-05
0.0127416074863
-8.31957982945e-05
-0.012638901075
9.00536384e-05
0.0122099024604
5.1348850798e-05
-6.873490666e-05
0.0127723778487
-0.000243942088509
7.42528519504e-05
-0.0127831173337
6.00410511346e-05
-5.96514921156e-05
0.0128121932269
0.00022733204133
9.25954288274e-05
-0.000127529101366
0.000246058688801
-0.0122309652885
5.66905101029e-05
0.0122387937594
-7.22275454204e-05
6.83659645057e-05
0.0128035381903
5.38932570973e-05
0.0122247006405
-2.54083470488e-05
1.35730152556e-06
-0.0122125761762
0.000264870333384
-3.03651277326e-05
0.0122276724483
9.72769067259e-06
-8.24056831157e-05
0.0127982920516
9.89269907202e-05
0.0127674978675
-0.000251832295909
-0.0127208299312
0.00025633083516
-0.0122316928171
0.0122382564801
0.0128012435034
-0.0122116127745
5.37509873576e-05
0.0127122827865
-3.87158098351e-05
-2.90231871064e-05
0.0121271119748
4.93711803319e-05
0.0121182460798
-1.06194864584e-05
-3.46836348204e-05
5.37213627254e-05
0.0126704967956
4.14939906487e-05
-3.87695097178e-05
-3.08309785835e-05
0.0121265209343
5.35370173369e-05
0.0126870593221
-2.05322559749e-05
0.0121195184346
-8.70729767264e-06
-1.33707361976e-05
0.0126530390869
2.69695890985e-05
2.0025532212e-05
-0.0126689209041
-4.02203959052e-06
0.0126660596836
1.4373756064e-05
-1.69815216838e-05
-2.73595981116e-05
4.50801363191e-05
8.34201138834e-06
-0.0121217034455
-1.94730345259e-06
0.0121178382149
-1.08060910366e-06
2.94187850516e-06
0.0126497619406
-7.59165887623e-06
-0.0126558157734
9.83538577695e-05
-6.28596887909e-05
5.87267588246e-05
0.000122776934674
7.27676509744e-05
1.31263281121e-06
0.0121126386549
0.0120996430718
3.19015519418e-06
7.98598533727e-07
0.0121112578033
-1.83488626971e-06
4.88787310863e-05
0.0126502860752
0.0121214694144
0.0121125068474
8.7366923085e-06
-1.42015815012e-05
1.58259623395e-06
1.40677725014e-05
0.0121048709343
-2.63205504162e-05
-2.5695365898e-05
0.0126145186798
3.30069451884e-05
0.0126310233843
1.60262717167e-05
2.81774366872e-05
-0.0121220108192
0.0121130096477
0.0126311712448
-0.000129152480617
-0.00011349337992
-0.00017260452871
0.000617087000242
0.203838272348
-0.000193958348054
-0.000394354340586
-9.58469916455e-05
-6.32730543886e-05
-3.02703051065e-05
-6.18407894989e-05
-3.27762331206e-05
0.000147830673866
0.0508433215298
7.46762240761e-05
-0.00301541030071
0.00231207931388
0.000101558056698
5.615304112e-05
8.10821253683e-05
-0.0013404419101
-0.00423674501892
0.00294094856133
0.00326377826432
0.00195016253814
0.0547991038923
-0.0134610487946
0.00196196737158
0.0176414652909
-0.000163518725903
-0.000180118587144
-0.00017361556792
-0.000169233033028
0.000438985638684
-0.00027305240755
0.0513537118484
-0.000224384917702
0.000241905464688
-3.13739684474e-05
0.0122262009661
0.0507507192266
-7.40593106991e-05
-2.94794094092e-05
-3.89322672197e-05
-6.71987355318e-05
-1.02866151331e-05
0.0508607844064
-8.31809705392e-05
-0.000101953401231
-0.000103162143909
-7.97511994057e-05
0.000168405742479
-8.28593038848e-05
3.90491920157e-05
0.0121455274494
-1.53795398805e-05
3.04281228865e-05
-3.19978934437e-05
4.10989271342e-05
2.55148417728e-05
0.0121132411156
-4.34593060596e-05
0.0120666806001
-0.000108620132158
0.00014907852941
7.81392388784e-05
-0.0120872175297
-9.78974443645e-05
0.050974516052
-9.4717325237e-05
-9.45178115291e-05
-9.54557369114e-05
-9.49235236972e-05
0.000198178390178
0.000209213874005
-0.000141538371261
-7.62440104227e-05
-6.25084372663e-05
-6.02519145131e-05
-7.62241041727e-05
0.000188531266293
0.000271727355589
0.0510099162379
-0.000220575848502
-0.000109619300906
0.000143219911038
0.00010184930517
0.0120542544037
-0.000122561085989
-5.68038856663e-05
6.71629939363e-05
0.00013363389895
-0.0120402411455
0.0120430286589
-0.000146915078453
0.0002049934938
0.00020630036989
0.000193839328674
-0.000461735194524
-0.0114185226326
0.00417875096586
0.00161669946418
0.00296883275024
4.40343677029e-05
7.28067858116e-05
8.27302846689e-05
-0.00639709735015
0.00381766472655
0.000433208530424
9.87391091632e-05
9.03162922088e-05
9.08736448693e-05
0.003283651697
-0.00630575194048
-0.00101857947855
0.00368860419207
-0.000186481658371
-0.00260932408232
0.00158621451865
0.00277761696465
-0.00016485152593
0.000568471335446
-0.00262521278626
0.000103523635626
0.000102618103242
9.32326099181e-05
0.00303734776321
0.00406051063475
-0.00444859804473
4.81555991419e-05
8.50473572402e-05
7.4545332744e-05
0.0014469177462
0.00309463188841
-0.00563135837696
-0.0018001454793
-0.0128404834172
-0.000206861297895
8.2211427234e-05
-6.30313278296e-05
0.0128646535917
-8.00762468025e-05
0.0128403701819
0.000229646565794
0.0122375277485
-5.51716668596e-05
-3.40396309043e-05
0.000213668632669
0.0122337507786
-6.29986698737e-05
-5.36759413144e-05
0.0122440479645
0.0128645605634
3.68820719327e-05
-0.0126466065489
-8.10996511228e-05
-3.44983075318e-05
0.0126620636666
0.0126666191415
-2.20051642378e-05
3.0298454229e-05
7.98957265147e-05
-1.4758769717e-05
2.77545345317e-05
0.0121541543023
3.23364436118e-05
0.0121317644022
-5.44967993436e-06
4.43241109689e-05
0.0126775163365
-1.89434388551e-05
-1.36631961748e-05
0.0121307197457
-0.0126267062255
-0.000115834673062
-1.00328015299e-05
0.0126441976966
-4.69899149473e-06
0.0126118727786
1.89811769781e-05
5.7851076098e-05
0.0121194038941
3.80253913603e-05
0.000107434987433
0.0121000114814
-5.94019127852e-05
0.012110661118
0.012633138833
9.34248206611e-06
0.0126656065968
-0.000128556845416
-2.37848777563e-05
4.78884056732e-05
3.85549233489e-05
-0.0126557839388
0.0126825803595
-1.79893692963e-05
0.000150936001037
-0.0120995030356
0.0120751620798
5.03275246979e-05
5.9426899554e-05
0.000124442570123
-8.03717927959e-05
0.0126925126901
5.96512114331e-05
3.29162615663e-05
-1.33919171791e-06
-0.0127200463862
-0.000128534144092
-6.06871791442e-05
0.0127399043421
7.46551208328e-05
4.53334950863e-05
0.0127129037559
-2.6774387055e-05
0.000141373632179
0.0120631668166
7.60787810015e-05
0.000118651674763
0.000130186671277
0.0120445593368
-0.000136485708312
6.37870637276e-05
0.0120512177199
9.53331742971e-05
0.0127324185289
-4.48515757982e-05
0.0127538966363
-0.000101804531079
-6.66748875958e-05
7.82591460707e-05
7.08777564233e-05
-0.0127467057441
0.0127399586348
-5.95839009575e-05
6.22791796163e-05
-0.012044587958
0.000118192719514
0.0120459568537
0.000131664631566
0.000104078654547
-0.00014629383275
8.10977555551e-05
0.0127457289089
0.00011105409168
-5.31200656575e-05
-0.000650927636105
-0.0493666137852
0.0493060234953
0.0008062152838
3.15340594243e-06
-1.65388777283e-06
9.04696027844e-06
-3.34109701002e-06
-0.00010168322023
-0.000814114591796
0.0498200032903
1.95573710625e-05
5.09061916664e-06
1.21096232708e-05
1.13413437032e-05
-2.35080447316e-06
-0.0497698999668
0.000718357315871
-0.00116942698389
-0.0499537587964
0.0500775336531
0.000960477601858
2.06518586352e-05
8.2937790007e-06
1.30106710526e-05
1.42396927603e-05
2.8981456854e-05
-0.000749573938041
1.07138032507e-05
1.67635301445e-05
1.65814438929e-05
1.13808659791e-05
5.37041917839e-05
0.0501864104656
0.00056679196999
-0.0501127721046
-7.28821563034e-06
-0.000918482012561
-0.0134436215464
0.0174205768164
0.00158733387882
-0.00460637189788
-1.5853899928e-05
-4.56861038911e-06
-4.08666007906e-06
3.19449554831e-06
-0.0219441155293
0.0237685460841
-0.000190184475825
-0.00285132641969
1.2905000997e-05
-5.8942258549e-06
1.14054144549e-05
0.00120988381679
-2.17889929636e-05
-0.000890589840787
0.0206851656441
-0.00578082652285
-2.52890810784e-05
-2.73702775889e-05
-3.24984340487e-05
-0.0154270208416
0.00152064058021
-3.1245941321e-05
-0.00149809519025
-0.0262229177048
0.030951635126
0.0031442088494
-0.00623797237298
-3.69649706227e-05
-2.98639003643e-05
-3.8612757476e-05
-3.28760260647e-05
-0.00546749599111
-3.61550254916e-05
-3.62302086047e-05
-3.25071502068e-05
0.0293483082706
0.0071591354211
-0.00590235229537
-0.0249997464057
0.0878132237935
-0.00249581496963
0.0126057748127
0.0138715828331
0.0129868942408
0.0125818765081
-0.00378315169517
-0.045740146719
-0.0242178244547
-0.00359444877627
-0.00668157142822
-0.00475999139383
-0.00581182454624
0.0180716688791
-0.00999382800816
0.0719643788987
-0.00194663850218
0.00977727831875
0.00969137710457
0.0108143584766
0.0116688552894
-0.0344126672679
-0.0245498614288
-0.000130488643054
-0.00247146643137
0.00388335623931
0.000560048189324
0.0426867250471
0.0657018358631
0.0110416557566
0.0116862961647
0.0118513155875
-0.0313899071272
-0.00710767000673
0.0117846616315
0.00803566863243
0.00766330571629
0.0081936902687
0.00724023787039
0.0584750458133
-0.0177266265705
0.000241265863009
7.5971934427e-07
7.48955733822e-06
6.25006356567e-06
1.31522474219e-06
0.049055804888
2.52655791332e-05
-5.24165868617e-05
-0.0492857967437
0.0490710360162
0.00045319527865
3.99619230591e-06
9.52434832127e-06
7.54087717304e-06
2.62791191545e-06
1.30511429772e-05
-0.0493197145292
4.41865507406e-07
-1.87443865695e-06
-0.0122772021699
-5.02065314842e-07
0.0122565455079
2.25644609983e-05
0.0122720544665
6.05986223318e-05
-1.99124229683e-06
1.35823017142e-06
-4.28734215845e-05
-0.0122890828598
3.99741721756e-05
2.35611623267e-05
2.84007189435e-05
4.44526085553e-05
-0.000379366159471
0.0122720613172
0.0122098095409
0.0121749251447
0.0121603521711
-0.000153975224557
7.74193139829e-05
2.45938333221e-05
-1.12983841558e-05
-5.75639222487e-05
0.0122389549824
0.000593475290606
3.31558375824e-07
1.25504641628e-06
-1.1310199522e-06
3.50176794576e-06
-4.41205997309e-05
-0.04946674777
0.0495572630406
-8.13292696666e-07
1.14692875554e-05
3.47634433489e-06
3.89815249342e-06
-4.97770644116e-05
-0.0495822685388
0.000650390604131
0.0122891924595
-1.70610089595e-05
1.43655336194e-05
-0.0123000175446
7.37100293228e-05
0.0123193392738
8.48964548161e-07
-3.04451237987e-06
-8.34910917417e-05
-0.0123177092642
8.38318545778e-05
0.00104747852464
7.71621683549e-06
2.03866028292e-05
1.53714360745e-05
1.85322103576e-05
0.0492048261162
-0.000218824741962
-0.000184460581969
-0.000211803392976
-0.000176058837358
-6.75395300838e-05
-4.85261139889e-05
-5.31512444277e-05
-4.77875980763e-05
0.0495429336919
-3.04385056887e-06
3.49161039447e-06
-1.01082744677e-05
1.18476703058e-05
4.38943453904e-06
0.0496745617937
0.00100461494192
-5.55089397149e-06
1.45943089482e-05
8.5389464516e-07
9.09112067806e-06
-0.000107536432339
1.51482568177e-05
0.012260792255
8.35262213867e-05
0.0121843873811
1.8824467769e-05
7.67483267613e-06
-0.0122028022685
0.000139344954002
-0.000147483512112
7.90168388707e-05
2.01260362776e-05
-1.12436892362e-06
-8.03603995222e-05
0.0123016237839
0.0122591350437
9.21085538485e-05
3.05260669451e-05
-7.72387865017e-06
-0.000103791864983
-0.0122702196657
0.049835426738
1.09171873851e-06
1.07843507886e-05
-1.09452817576e-06
1.46988230852e-05
-0.00123987487264
-0.000115583257025
0.00136491142523
6.5228480363e-06
2.71345992195e-05
2.40805625552e-05
4.51535894274e-06
0.0503445173037
-0.000271148297771
-0.00166481814487
1.98738220466e-05
0.0121767687665
0.000161234369911
-0.000170336962261
-4.02196107584e-05
1.58684804071e-05
-0.0122096579878
0.000210797145239
0.0122538873063
-0.000230624500412
0.000104212758584
3.42142039345e-05
-7.70186109568e-06
-0.000120601043682
0.0122490703767
0.000149202651528
2.29499428162e-06
-5.4470182529e-06
-0.000160488013478
-0.0122538666915
0.0122683472465
0.000844155185893
1.73666806902e-05
1.46373289543e-05
1.06062628922e-05
2.22574643241e-05
-3.80669072862e-05
0.0500573325521
2.12864384644e-05
2.60113862563e-05
2.47652696755e-05
2.31653770816e-05
-2.156455875e-05
-0.0499609659187
0.00067414034969
-1.23417961714e-05
0.0123015621503
8.33781831451e-05
-0.0123154198242
0.0122710105593
3.15135697729e-05
-2.48816878689e-05
-0.0122800764472
9.45249021683e-05
0.0123011034121
3.93844874711e-05
-5.24931207671e-05
-0.000122292786083
-0.0123038122269
0.000138111448119
0.00104128014297
2.1572824887e-05
2.32142301439e-05
1.77280512765e-05
2.78384156509e-05
0.0503189292378
-8.05044776821e-06
0.0501635749331
2.10774896683e-05
1.99636486759e-05
1.9250135773e-05
2.06363849737e-05
2.3878697001e-05
2.11584302525e-05
2.34426134383e-05
1.98867482354e-05
2.59703337455e-05
0.0503195051978
0.00078417190127
1.07514501719e-05
-2.62801081243e-05
0.0122649284885
0.000105366389525
3.40611258494e-05
-3.57162372177e-05
-0.0122693278615
0.000142686009165
0.0122775212333
0.000147064420972
4.0386981439e-05
-5.00079072294e-05
-0.000131443711053
0.0122950864988
0.00017317207988
3.27222699787e-05
-4.72356230033e-05
-0.000161696313581
-0.0122880495536
0.0122910656915
-4.48436212147e-05
0.0123021124378
0.000163823164563
-0.0123068876278
-4.32357026072e-05
-0.012293541653
0.0122935962849
3.51489165598e-05
0.000181212122731
-0.00183653413698
4.84738071904e-06
-1.86666177132e-06
7.29747558315e-06
0.0156214873195
0.00471242653357
-0.014365766427
-0.00414376907593
0.0155574771747
0.000471366129466
-1.75286371529e-07
1.9194439862e-06
9.10203220367e-06
-0.0137595322734
-0.00412020354934
-0.00733311883037
-2.33601869193e-05
-5.30215172057e-05
-4.68993466363e-05
0.00265001725421
0.0194708270499
0.0169192055633
-0.00269749321225
0.00758186956575
0.00279904964673
-0.0119739820837
-0.00107657645682
0.0220555763576
0.0096606740519
0.000147425495951
0.0184562053763
-0.00245057390038
-0.0129967546502
0.0236584052418
-0.00175522640745
0.0080634341139
0.0151976314324
0.00039585909628
0.00584885449979
-0.00298523981652
0.00112429929565
0.00940671068366
0.00237832650646
-0.00438905460845
0.0178785695175
-0.00250237850389
0.00393035670198
-0.00161870048256
0.01238703193
0.00243541186672
0.00109462014769
1.55475532322e-05
1.57122183191e-05
2.09757479002e-05
-0.0032536954526
-0.0108802537143
0.0132459759441
7.84167288481e-06
2.32346789514e-06
1.11615717041e-05
-0.0092258896749
-0.00310479359653
0.000158329533516
0.00141054243302
-0.00527896598695
-2.78634356707e-05
-1.84105485197e-05
-9.41900123053e-06
-0.000573073484747
0.0192336991061
-0.00522342383251
-8.7575853433e-06
-2.5932900551e-05
-1.3014258858e-05
-0.00632405905574
0.0254326453582
0.00164040308229
-2.53382490093e-05
-2.61053024032e-05
-2.38734203734e-05
0.017625898536
-0.00235792054066
-0.0125695937519
-0.00213537290758
0.0223839642405
0.0170645490359
-0.00182855998267
-0.0120064522682
0.0220076189302
-0.00172284528892
-0.000841013575112
-0.00182499677858
3.96881168546e-05
3.79467818138e-05
3.71426437874e-05
0.0240949017226
0.00219089752598
0.0304335494096
-0.00656017280178
-3.08759542093e-05
-3.33693561747e-05
-3.25550388708e-05
-0.00308572279787
0.000680031553273
2.60868339421e-05
-2.13740322408e-05
6.55269194272e-06
0.031986586055
0.0196348841782
-0.00278386577599
-0.00354820323791
0.017209575439
0.0195908766946
-0.0030372754472
-0.00329344785058
0.016828362213
0.00257425674386
-0.00634898086957
-3.03265554848e-05
-2.98584841945e-05
-3.09237398803e-05
-0.00679536582111
0.0258170855611
-3.78767704537e-05
-4.31964373109e-05
-3.62017580187e-05
-0.0210970915076
0.00480647066659
0.0158130120281
-0.01108955948
-0.0012874778808
-0.00130201044351
0.0207180886226
0.0207751233936
-0.0156274804813
-0.00138995635532
0.00305876072814
-0.00640375492638
-2.65516954064e-05
-2.96105162158e-05
-3.1573993966e-05
0.035097591754
0.0306895509164
-0.00703228882626
-4.14171996872e-05
-3.90108935733e-05
-4.19036802469e-05
-0.00612365022312
-3.32734230408e-05
-3.2573535458e-05
-3.40541882098e-05
0.0346687070636
0.00533603012781
0.0212902846918
-0.00182621934669
-0.00159711760698
0.0208513843645
0.0218795100697
-0.0017715908213
0.0229540512757
-0.00153631137483
0.0123914335339
-4.44580463499e-06
-3.5033019266e-05
5.31491910573e-05
-0.0124043458523
4.54812038773e-05
-0.01238457745
0.012363040033
-1.84041281143e-05
-1.2491584255e-06
3.42315949603e-06
2.15523888902e-05
-0.0122958717666
-3.56844437883e-07
-0.0122795520389
2.07030435563e-05
0.0122570690441
7.03683421322e-05
0.0123724740744
1.89986405931e-05
-0.0122969702444
-1.55192895176e-05
-0.0123992859577
0.0123990453466
7.59414336251e-05
-4.47116212077e-06
-0.012413350496
-9.30893246842e-05
-0.0124097809084
0.0124017979413
0.000111964940496
7.13729167784e-07
-0.0122852204346
0.012261991019
6.4902139005e-06
-4.00759350876e-05
5.37190939272e-05
-0.0123067480253
0.0123845502749
9.58630167633e-05
-0.0124204643339
-0.012301494849
-0.0123705507884
0.000124709484443
3.95249510924e-05
-9.82476071275e-05
0.0123445345085
-0.000104907052926
0.0123892521007
0.000129680206074
-1.65453798466e-05
0.0122261871153
-2.90450555479e-05
-4.19650284756e-05
-6.95676903249e-05
9.32854547061e-05
0.0122039795481
-7.93230034903e-05
0.00014567458573
0.0123705695406
-3.51238678054e-05
0.0121842348651
-0.000117762449429
0.0124403506475
-1.50563097079e-05
0.000136784960378
-0.0124439611159
-0.0124245816956
0.000133800741306
0.0124184212875
1.6149086853e-05
6.78099081673e-05
-0.012314622549
1.34908760288e-05
-0.0123117735043
8.37426743808e-05
0.0123039282987
-0.0124312327302
0.000156389965071
0.0124349249023
7.95295473029e-05
-0.0123176464964
0.0124615345535
0.000151319726268
-1.25686805143e-05
-0.0124641608465
-0.000171471200082
-0.0124797358278
0.0124819805545
0.000177558603538
9.64517111803e-06
-0.0123150471679
0.0123137484063
2.64199500157e-06
-8.17429266226e-05
-0.0123192507247
8.30037262116e-05
0.0124595915842
-0.0124804669861
0.000158611520912
-0.0123186529944
-0.000173468310323
-0.0124272094975
-2.1202354219e-05
0.0124218402894
0.00020320819533
0.0124074979711
0.000154110891257
7.36817008436e-06
9.82440385125e-05
0.0122318316357
2.28015794035e-05
0.0122751788732
8.5312450783e-05
0.0123958969383
0.000181328228393
0.0122515956747
9.64696873862e-05
-0.000199185615662
0.0124200359641
-1.99012107668e-05
0.00022862644644
-0.0123815853904
0.000231611549841
0.0123736352452
-0.000195615506153
4.35070837619e-06
0.000117859678628
-0.00012111695009
1.03503813389e-05
-0.0122282310279
0.000130727719258
0.0122083113213
-0.00016521305665
0.000257351792033
0.0124232134584
0.000112007220647
-0.0124553038399
0.000216493183419
-1.50866590885e-05
0.0124540514401
-0.000194504028169
0.0124790447523
0.000199786601382
1.90364030416e-05
0.0122901077033
-8.1268583859e-06
-8.59890561143e-05
0.0122876754445
8.20518997961e-05
0.012479111308
0.000220184123871
0.0122724445299
0.0124531061515
0.000241601480535
-1.75689625949e-05
-0.000268191637798
-0.0124827458961
0.0124905356852
0.000267279986843
1.55357318374e-05
-0.0122511302808
0.0122368687169
-2.65555935564e-06
-9.17667196136e-05
8.56919136851e-05
0.0124586840794
0.000244484374045
-0.000301634119525
-0.0124275004947
-1.36050962914e-05
0.0124428454253
0.00032432928397
-2.44123645586e-05
0.0123769829816
0.000265733285582
-1.45544232039e-05
-0.000234624912511
2.26853265429e-05
0.000179724878171
0.0121819716122
-0.00019473164283
1.16377010677e-05
0.0121972072475
0.000154839135866
0.0123994581294
-1.94763642558e-05
-0.00028193258571
0.00028823902085
-1.51139541565e-05
0.0122000986551
0.000174634735565
-0.000330671039538
-2.58206404137e-05
0.0124992180403
0.000353607135288
-5.34482580644e-05
-0.0124735101162
0.000359271476766
0.0125592239504
-0.000358798790866
-7.03610565361e-05
2.85701304331e-05
0.000197181056954
-0.000213726426856
-0.0122231317475
1.7717728268e-05
0.000193568653449
0.0122601570497
-0.000318984615432
-5.71022156695e-05
0.000185565651468
0.000375189538957
0.0125656019924
-6.47180238983e-05
-0.0124663303505
0.000320488970751
-1.17225365265e-05
0.0124830040256
-0.000292879991206
0.0124976642241
0.000288851977288
1.33470521838e-05
0.0122268702326
-1.05591172069e-05
-0.000137153761748
0.0122449614982
0.000118431935134
0.0125110205103
0.000311318966016
0.0122200500277
0.00034192499298
-2.00163132234e-05
0.012521229918
-0.0125375853598
-0.000359002978786
0.000343097767241
0.0125751304412
-0.012238218264
3.03999242179e-05
0.0122669821376
-9.65774928116e-06
-0.000153767684864
0.0001330140043
0.000329807561901
0.0125723597237
-0.000209759674198
-0.0125219291243
3.4061934662e-05
0.0125245385899
0.00019265758587
0.0125038275832
0.000192980001849
-0.0125042305467
-2.05511917744e-05
8.62781677385e-05
0.0122925429098
-2.34932373479e-05
0.012307439341
-0.0123177973223
8.98121407073e-05
0.0125057938652
-0.0125203628457
0.000179255081502
0.0122994346135
9.58726965954e-05
-0.000229790480356
0.0125285445908
3.38687825505e-05
0.000209284308392
-0.0125100334265
0.000248395281367
0.0125186978724
-2.10763843562e-05
8.89200706758e-05
-3.78575966858e-05
-0.0122893564542
0.000109221688288
0.0122826974325
0.000224845593152
0.0125365200436
0.000101996096171
0.0125422057504
0.000185033119466
4.28677948319e-05
-0.0125395191146
-0.000196426401781
-0.0125526188603
0.012556219721
0.00016633421498
-4.77088723354e-05
-0.0122970389205
0.0122937468378
-4.88404283612e-05
-0.0001153284094
-0.0123112728193
0.000128426136497
0.0125476894659
-0.0125505148562
0.000157264480832
-0.012303788034