/*--------------------------------*- C++ -*----------------------------------*\
| =========                 |                                                 |
| \\      /  F ield         | OpenFOAM: The Open Source CFD Toolbox           |
|  \\    /   O peration     | Version:  v1906                                 |
|   \\  /    A nd           | Web:      www.OpenFOAM.com                      |
|    \\/     M anipulation  |                                                 |
\*---------------------------------------------------------------------------*/
FoamFile
{
    version     2.0;
    format      ascii;
    class       surfaceScalarField;
    location    "14.05";
    object      alphaPhi0.water;
}
// * * * * * * * * * * * * * * * * * * * * * * * * * * * * * * * * * * * * * //

dimensions      [0 3 -1 0 0 0 0];
oriented        oriented;


internalField   nonuniform List<scalar> 
92311
(
0.203447022405
-0.000109785101429
-0.00106154653874
-0.203113491849
0.00083433466159
-0.000102651000409
0.203645231538
-0.000705080739212
0.000611564173409
0.203452944848
-0.000184284539657
-0.00112604631919
-0.203133263737
0.000882116047257
-0.000165087928902
0.203660104691
-0.000704970076498
0.000561066812732
0.203492200438
-0.000109253884409
-5.25774374621e-05
-0.0011047777551
-0.203098182788
0.000837908646537
-8.86093249589e-05
-6.03845260889e-05
-2.07513004191e-05
-3.02348973621e-05
-3.73139078101e-05
0.2036143436
-0.000704377294724
0.000529411405761
-2.34607025429e-05
0.0510028875154
-3.11176584434e-05
-3.54406228982e-05
-3.09265078731e-05
-3.25357089377e-05
-0.000385893718103
-0.0509247711049
0.000328731892922
-0.0510629012967
0.0511110959886
-9.28796826355e-06
2.70979608746e-06
-3.26530647835e-06
1.573485167e-07
-0.000229741211182
0.000170611023196
1.08188350353e-05
-0.000874676976421
9.67862303457e-06
1.04310201033e-05
8.75840973746e-06
0.000165008702681
0.000696529103273
-4.9269679041e-07
4.4532728067e-05
-0.00140314275659
-0.000369499157913
-3.9576015733e-07
0.00130155476247
1.2954304615e-05
1.65621907183e-05
1.06969742501e-05
1.22391457735e-05
0.000455453116616
7.50288820297e-28
0
0
0
6.82078506931e-29
-7.31835566659e-31
0
0
-1.92177017978e-05
-8.62736695514e-06
-1.12847342275e-05
-2.01974204029e-05
-0.00031009600307
0.000256988740069
3.86744743463e-05
0.00995062588073
-3.43527187706e-05
5.35450808934e-05
-0.0099829976883
0.00990260417742
-6.31914287704e-06
-2.00956993044e-06
-0.00990302752093
-2.73729001688e-05
5.73035460575e-05
0.000140917824469
-3.1441159769e-05
0.0511852945664
-1.73124423892e-05
-1.50596285219e-05
-4.91036136784e-06
-0.000176514296319
-3.27512197945e-05
0.0511476615783
-3.64920316146e-05
-2.3993348494e-05
-2.78350435251e-05
-0.0510386853501
0.000115964253809
-5.52699043074e-06
-1.28996407028e-05
0.00991551860274
-2.59601134006e-05
5.31731995882e-05
1.51404216134e-05
0.0127513840576
-1.63334338397e-05
-4.67929380001e-05
-0.0127342972061
0.0127409074068
2.16224665223e-05
-5.38618100465e-05
-0.0127251923183
-0.000251762012637
0.203556515235
-0.00183412840499
0.00156240210383
-0.20303448965
0.203736984476
-5.81034721031e-05
-0.000300411729611
0.000271471150267
-5.90873396575e-05
0.203865275467
-0.000170041481953
0.000102830878198
-0.000313631960562
0.203610895703
-0.00196511816886
0.00161146033562
-0.203193931323
0.203840390229
-0.000136701248534
-0.000411930098608
0.000312022328864
-9.27975173782e-05
0.204020427341
-0.000256074821233
0.000111786858411
-0.000118979851992
-0.000149371485391
-0.000129931407783
-0.00197682235214
0.20362764173
0.00165469304321
-0.203116273184
-0.000104008007059
-0.000110456560776
-0.000201754025549
-7.29209580468e-05
-0.000125787045706
0.204043451095
-0.000311307098832
0.000256935600935
0.0509913115135
-2.55149483864e-05
-2.87038643073e-05
-3.7945825007e-05
-1.69848708552e-05
-0.000657620744205
-0.0509499729309
0.000606492775016
0.0512724740298
0.000120142325926
-4.21623378841e-05
-2.8947794414e-05
-5.03061634083e-05
-3.99296021005e-05
-0.00015634805845
-0.000542260608256
-2.94982848394e-07
-0.00139335543236
1.57419825084e-05
1.74830438205e-05
1.54330358605e-05
1.57903404985e-05
0.000497485567495
0
0
0
3.43010789404e-31
1.81961300385e-32
0
-3.91496963978e-30
0
0
0
0
2.48713632435e-09
4.3459491473e-30
0
-2.48713632435e-09
0.000531098783331
-3.51333581746e-05
-6.50245101873e-05
-4.89519134769e-05
-5.26923057176e-05
0.0510719878098
-0.000559230750202
-1.85784645891e-05
-3.48665250686e-05
-2.22814813496e-05
-3.66628878936e-05
0.050995550111
0.00044330101034
-0.0509251047425
-6.27787366548e-07
2.3193203814e-05
0.0100763961737
-5.5476399765e-05
3.89484359621e-05
-0.0100781766583
-8.79360968732e-06
7.97068166257e-05
-0.0100326491554
-0.000116572254818
0.000110506181286
0.0099918834057
-8.68206345884e-06
0.012695200351
-0.00012830225968
0.000112369910939
-0.0126900369177
7.02609933412e-05
-5.49897091773e-05
-5.42125189748e-05
-5.16488487694e-05
-5.27589736022e-05
0.0513204939504
-0.000106303539902
0.0512311918802
-3.18755905759e-05
-3.20247475366e-05
-3.22759788776e-05
-3.2381406584e-05
9.24907667756e-05
-3.44855143804e-05
-3.28816529827e-05
-3.54683591821e-05
-3.58973988391e-05
0.0512618987579
5.28117107745e-05
2.0253801562e-05
-2.33902143626e-05
-5.12403704283e-05
0.0127651598127
-1.51241780274e-05
5.08176699325e-05
-0.00982208468394
-2.18151650778e-05
0.00978527314672
5.6727465154e-05
2.54223610318e-05
-4.89385670505e-05
0.0127545389511
-0.0127581276617
-2.89208231375e-05
0.0127582463071
-2.79953379047e-05
2.39028524097e-05
-0.00108635260326
9.14982809708e-06
4.85539514634e-06
6.40901682748e-06
0.000256752061688
-2.27854944593e-06
-4.59197933625e-07
-5.23466471421e-07
1.39502648989e-05
1.41990482815e-05
1.44520388884e-05
1.3963608689e-05
-0.000657630504045
-0.000104957308911
0.000401414611622
-2.3229517064e-06
-2.21040022896e-06
2.00350667213e-06
2.80158805476e-06
1.83596228187e-06
-2.11982463669e-06
-2.12288970876e-06
-4.93205475893e-07
6.23682780741e-06
5.60311911918e-06
7.09751829301e-06
0.000385704839622
-0.000136751447508
-7.1584425002e-07
1.39273804791e-06
1.23664338618e-06
8.68263462141e-05
0.0127153813197
-9.49444323736e-05
-0.0126996849944
-0.0127020495683
-2.70925463616e-05
-7.60813902913e-05
0.0127031079535
6.67959892841e-05
-2.60909246171e-05
3.07437154885e-05
0.00991994801379
5.33096690357e-05
3.64519428877e-05
0.00996449058136
-0.0100046586004
-7.1339682982e-06
-0.0126894304629
7.9547794222e-05
0.00993358824936
7.7790122393e-08
0.0127214742993
-8.34903662705e-05
0.0127073505849
-1.06958531308e-05
-5.95298450421e-05
4.67431097225e-05
4.61541208517e-05
-0.0127256765541
0.0127236765701
-5.52756931621e-05
-2.34708728415e-05
1.4796666182e-05
5.43079782765e-05
-1.48276210568e-06
-0.00992312362751
0.00992169848567
-2.20712731326e-06
0.0127078312515
3.22593076799e-05
-4.03877783723e-07
-6.8877671345e-05
-0.012713414652
-8.02352415148e-06
-2.25210968976e-05
0.0127197229727
1.42172839221e-05
3.2105537468e-05
0.012725808397
-4.54079705111e-05
-2.79822435112e-05
-4.48013600824e-06
0.00992175538411
5.52285847183e-05
-3.11480247039e-06
0.00992652785635
-3.25097699535e-06
1.88682726478e-05
0.00992159694674
-3.2718023585e-06
0.0127315944579
-3.30851345182e-05
-2.54531337167e-05
-0.0127395401875
0.0127518725187
-2.01843028328e-05
-3.31647135561e-05
-0.00992120220572
0.00990745636156
6.52425472633e-05
-0.00990791654534
-2.01056656442e-06
0.00987866119219
-2.51404284733e-05
-1.80224693453e-05
1.34852911147e-05
-2.77792553305e-05
5.08989389793e-06
5.96305528936e-05
-8.6875434058e-07
-2.57959102353e-05
-5.56198352195e-05
-0.0127231488435
0.0127394389783
2.57336024849e-05
8.85209919244e-06
-0.00989588038548
0.0098727712202
-0.00989746618581
0.00987227766975
1.86397696989e-05
2.04326348135e-05
-4.89826044655e-05
-0.0127067207841
5.31811075221e-05
-9.76355131475e-06
-0.00991894842716
1.71691084735e-05
-0.0127021594325
2.53414903376e-05
-0.00991514757219
-2.22568984637e-07
0.000491914071841
7.11517519733e-06
1.12324146051e-05
8.61805700884e-06
6.25331525646e-06
-0.000737708145131
0.000473213066923
-0.000217952604278
-8.76852434901e-07
-8.1355416607e-07
1.00398136546e-06
1.027924597e-06
-0.000575630379478
-3.52208605938e-07
2.74659267579e-06
-1.00373035737e-05
-2.22742786021e-06
0.000542397018796
-0.000439120218595
0.000514052182044
3.48964900028e-07
6.83720129239e-06
8.04507589199e-06
5.21749424367e-06
-0.000801489120647
0.000687996366501
-1.44444206994e-06
-7.33651903818e-07
1.65079931187e-06
8.09051483861e-07
-6.48583425518e-07
-1.4022109318e-06
-7.36390983126e-07
-0.000909587023035
1.26062846646e-05
1.14371148179e-05
9.94317952256e-06
1.12771755663e-05
-0.00027480606565
6.89024825919e-08
-1.50718372756e-06
2.53953023685e-07
-1.13183901351e-06
-3.15313353219e-07
-8.04477754655e-07
0.000591799927268
6.16431059652e-06
4.79978263943e-06
7.97294234337e-06
8.40411859681e-06
-0.00107357737703
-0.000407736685296
2.8205329337e-07
-6.57228059068e-07
-5.19326474869e-09
-2.39591578298e-07
1.44031526183e-05
1.02547645546e-05
1.15701487252e-05
-0.00132953142706
0.000498233210685
-1.65737418691e-07
5.61602551038e-08
-0.000164043069003
-0.0126981830479
-2.16958488291e-05
0.0127010075702
0.000155703476034
0.0127040851165
0.000171671857454
-0.000172820286337
-0.0127104850387
4.48065365626e-05
-7.56924757543e-05
0.0100557152685
6.24771374909e-05
3.13671122402e-06
0.0100627271661
-0.0100667286319
-6.84438468233e-05
0.0127094636801
-0.000164319603525
-0.0127049469037
0.000162337702122
0.0100477726723
-8.72858944589e-05
-0.000150429977025
0.0127081011073
-3.63667786339e-05
0.000144101731951
-0.0127156415691
0.000136686285389
-0.000135624941143
0.0127303791313
5.65634294201e-05
-9.97252359367e-05
8.96954758973e-05
6.35730485906e-05
-0.0100294985951
-0.000115266833124
0.00999301629938
-0.000149374035619
0.000132773371244
0.0127236942105
-0.000104784990406
0.0100251124469
8.44413164312e-05
-5.403155258e-05
-0.010051091564
3.76684650352e-05
9.08334974445e-05
0.00998068185398
-5.43580397765e-05
-0.000119024383202
0.0127099971118
0.000106724011514
0.0127034491149
-1.26453456634e-05
-0.0126984692791
3.85879985211e-05
-0.0100243851174
0.00998747506059
0.0127189295827
-0.0100439322603
-3.70717348549e-05
0.0127638401048
-2.60306456954e-05
-3.19456434162e-05
0.00988873612976
6.57106841495e-05
0.00984690967261
-1.45724966927e-06
-3.18688359414e-05
-4.54414782833e-05
0.0127718155124
2.22129743848e-05
4.80853609719e-05
-3.173790142e-05
0.00986052973746
6.53788710377e-05
0.0127762427009
-3.42855595542e-05
0.00982099500567
-1.13959973199e-06
-3.95422155612e-05
0.0127750031178
-4.21351778017e-05
2.5450095792e-05
-0.0127852752825
3.94138384615e-05
0.0127869168418
-4.26359875316e-05
5.63950897524e-05
-2.61127107414e-05
5.83251310491e-05
3.74410702106e-05
-0.00979677698601
5.26230388532e-06
0.00977340426859
-4.18248040215e-05
2.50504697506e-05
0.012775637533
2.85801328096e-06
-0.0127535297092
-3.47959005443e-05
-2.59874199461e-05
2.59616396567e-05
-4.61455574862e-05
2.68813906388e-05
1.0959313781e-05
0.0098507352005
0.0098501250709
2.16239819948e-05
-1.20254712074e-05
0.00983247594928
2.29986807821e-05
-3.97532473884e-05
0.0127601626493
0.0098345080131
0.00981278789859
-1.48526860745e-05
2.74877406752e-05
2.35553221141e-05
-1.7800152353e-05
0.00979926198302
2.93550114817e-05
-2.59795646934e-05
0.0127549952937
2.08588120025e-05
0.0127616306685
-3.72073005845e-05
3.43328304488e-05
-0.0098203796527
0.00980705807292
0.0127605847611
-0.000211804494741
-0.000150420414442
-0.000137486240355
-0.000172506791337
0.204628440769
-0.000186087835948
0.000180936896529
3.32139025446e-05
-4.6985667164e-05
-5.34122961982e-05
-4.95556646635e-05
-5.28853341744e-05
-5.46834314729e-05
0.0513330933266
1.14155017166e-05
-0.000544359248957
-3.59068731802e-07
8.85298034938e-06
8.81412330252e-06
5.88346120436e-06
0.000343917525226
-0.00113709713625
0
0
0
-3.01931905035e-30
-2.44553402114e-29
0
-1.54170161676e-30
-4.20368484999e-05
-3.9021412086e-05
-4.09093815167e-05
-4.08091781268e-05
0.000142173768759
-0.000457432439964
0.0510880151269
-1.45755535736e-05
4.35413198963e-05
9.08659346309e-05
0.00993906008523
0.0512752954081
-4.16730653075e-05
-3.98832392364e-05
-4.15387089863e-05
-4.11964614842e-05
3.39265774265e-05
0.0512943822635
-4.16448682253e-05
-4.10872839511e-05
-4.30793677234e-05
-4.2633333862e-05
7.66930029166e-07
1.13172892666e-05
4.66757723443e-05
0.00974816069018
-1.94978907309e-05
5.13411885367e-05
-2.2186122141e-06
2.94908580715e-05
-1.55112646149e-05
0.00977437311891
2.56067723851e-05
0.00967294727857
3.99556174666e-06
3.73880250576e-05
1.57072052459e-05
-0.00970864544691
-1.00568682136e-05
0.0513234117473
-3.82897465595e-05
-3.59139273043e-05
-3.88540604371e-05
-3.4427203331e-05
8.81687374523e-05
4.60092404665e-05
-1.54796879992e-05
-2.99306141158e-05
-2.15809660708e-05
-2.0645454843e-05
-2.54871285164e-05
7.80757301165e-05
7.37082772654e-05
0.0513181635965
-4.86650184113e-05
-1.85633630282e-06
3.42694172947e-05
3.64103143234e-05
0.00964971227061
-3.33228550082e-05
-1.93875467137e-06
2.27075897802e-05
0.000107710146181
-0.0096161637413
0.0096105348211
-0.000108439195714
1.36543733132e-05
1.38231909207e-05
1.32197609927e-05
0.000520481316607
-0.00110022536871
-2.28896016155e-07
-0.00108249078013
-7.40707212901e-07
5.02941504519e-06
1.11406913901e-06
4.10748198073e-06
-0.000505775220085
-5.56780783452e-07
-0.000969157837023
2.48536390595e-06
-5.33827493124e-06
7.78679844596e-07
0.000371182950209
-0.000444897099573
-1.5319658139e-08
-6.87338223258e-08
8.31521381896e-07
7.3422624317e-07
-2.63771949269e-07
2.88283238165e-08
1.32772531884e-06
-4.50667418459e-08
-0.000683393784127
4.28543081309e-06
1.16176048471e-06
3.94743829984e-06
1.09157794194e-05
-1.99290981451e-07
-0.000277340393434
2.3406896668e-06
2.69717437201e-06
3.71560065274e-06
-0.000200493434775
-5.62303971166e-08
-0.000455000571996
-2.34315488403e-05
-0.0127384731814
-3.67765195872e-05
9.90223849704e-05
-0.00011287121988
0.0127482056892
-0.000108152725529
0.0127281101917
4.53927029272e-05
0.00994569639326
0.000123265242568
9.21906971204e-05
3.40136092155e-05
0.00990642515008
-0.000122353680553
0.000126254244763
0.00991261680403
0.0127376272937
-2.93073437271e-05
-0.012774588759
-2.72268475016e-05
1.77365015971e-05
0.0127665140249
0.0127860841724
3.54617209892e-05
-4.00439587963e-05
3.21446972697e-05
-2.52697264195e-05
5.7925731629e-05
0.00971606011079
3.72520791164e-05
0.00974304516185
6.34841978346e-06
-3.48857306424e-05
0.0127747935129
2.20102696636e-05
6.39258611863e-07
0.00971303799022
-0.0127582585061
-3.83760660774e-05
2.0701195403e-05
0.0127521098725
-2.384477529e-05
0.0127496025792
1.93095462119e-05
4.00009014642e-05
0.00978276656189
-1.22380540476e-05
3.2213484239e-05
0.0097429092322
2.03566511844e-05
0.00975008030678
0.0127439858297
1.68424921247e-05
0.0127416307072
-3.6991426046e-05
1.7103176055e-05
-1.2286649126e-05
-1.56982349236e-05
-0.0127348124269
0.01273059405
1.4339931206e-05
4.44499003925e-05
-0.00971563170517
0.00967949712294
2.43806225077e-05
-8.2188481041e-07
3.26628711284e-05
5.59616561964e-06
0.0127354399483
-1.01797429275e-05
9.17854148444e-06
1.46039916673e-05
-0.0127345701756
-4.53859877682e-05
1.22773150179e-05
0.0127406699554
-9.8312418294e-06
-1.4322955141e-05
0.012730499498
1.3496471681e-05
4.427244939e-05
0.00964933520641
4.25182434648e-05
5.99383627847e-05
3.71583967806e-05
0.00962793116231
-5.98346910579e-05
-9.13030422333e-06
0.00962448442949
6.22687754806e-05
0.0127380751465
8.95369045707e-06
0.0127489094242
-3.42343317399e-05
1.03287755081e-05
-1.22877150547e-05
-9.00151018288e-06
-0.0127467568514
0.0127576155747
2.76630599668e-06
2.21263244673e-05
-0.00961310873898
0.000107949926732
0.00961120574812
8.4937549087e-05
2.85024654381e-05
-8.41200083154e-05
-1.47201806809e-05
0.0127588328443
8.52143528486e-05
7.05984449683e-06
-0.000445482882653
-0.0491594435708
0.0491362307752
0.000659435338651
-0.000100212432949
-7.82764014941e-05
-9.34823668222e-05
-8.46823589964e-05
0.000166079017715
-0.000717426224961
0.0497402892753
-8.31585325351e-05
-7.49885060047e-05
-8.95986564862e-05
-7.26141070288e-05
0.000276040390312
-0.0496210342941
0.00064272934977
-0.00113050119283
-0.0499902819756
0.050298932202
0.000968710686673
-0.000117293197037
-0.000112604687757
-0.000133505520689
-0.000113226441503
0.000330104358396
-0.000803899243275
-9.67750842375e-05
-9.62301536322e-05
-9.33056188137e-05
-9.84335380662e-05
0.000264773643064
0.0505191632511
0.000677492785632
-0.0502724250634
1.98912056394e-06
-0.000334194346544
-0.000133842856287
0.000208712978368
0.000190195401423
3.01695753975e-06
4.03706501377e-06
1.89388970274e-06
3.71531349034e-06
2.47181267228e-05
-0.000189475940265
8.00943184795e-05
0.000240894193364
6.9242612995e-06
3.59924640314e-05
2.37094647043e-05
3.03008290576e-05
-0.000326809941584
1.49824651866e-06
-0.000101955039977
-0.000606110263331
-1.44394940544e-09
2.35309591604e-06
1.01078863264e-06
1.67961858676e-06
0.00065077213333
3.34139078513e-05
1.15033566473e-05
-0.000196556566494
0.000572074448781
-0.000569784583471
0.000117134579692
1.19601521924e-06
1.43306463691e-05
1.01226401356e-05
1.23158913524e-05
1.04105832527e-05
-4.06633248496e-06
1.15175476797e-05
1.12954893674e-05
1.21799305459e-05
-0.000987720612264
-9.65946129507e-05
4.8489294088e-07
0.00101566713822
3.11130493742e-09
-8.13905146359e-09
-1.20502157822e-09
-2.10553085985e-07
-2.72155336966e-09
-1.41978532154e-07
-1.00254779696e-08
5.22675559202e-09
-6.40485390792e-07
-8.05988971883e-07
-8.38211220105e-07
-9.3324070946e-07
-1.18012509929e-06
2.49641012929e-07
1.13872211894e-06
1.11672236144e-07
4.72065887448e-29
-7.80489660457e-08
-3.39117265547e-07
-6.73794565114e-08
-1.93180676691e-07
-5.23316054415e-10
-3.11807969216e-08
-6.1722391263e-07
-1.07356464081e-06
-1.90608700018e-07
-2.95325146645e-07
1.21125374585e-06
0
0
0
0
0
-1.0136615315e-29
0
-5.58964543311e-08
-3.05635101209e-07
-2.33959470006e-08
-1.11452735258e-07
1.15167479945e-07
-2.22354643918e-09
9.21257578075e-05
-2.64601004789e-05
-2.86213600689e-05
-2.97423237225e-05
-1.99647750872e-05
0.0489529616414
0.000132804666933
8.393401456e-05
-0.0491569521908
0.0489924738339
0.00029286476944
-3.23540719331e-05
-4.57687306114e-05
-3.46810169035e-05
-4.49654314924e-05
0.000140878697154
-0.0491763395366
3.75786650225e-05
3.08317798032e-05
-0.0107581637292
0.000100759748982
0.0106830536744
-9.7008598555e-05
0.0107219778733
9.82780898377e-05
1.35210552081e-05
6.36829300748e-05
-0.000102911417343
-0.0107902470839
-4.73549925433e-05
-5.74029167015e-05
-4.17190068367e-05
-5.84355394496e-05
-0.000191213153575
0.0122421446303
0.0121846448267
0.0122039562059
0.012225468328
8.69025694448e-05
0.000109796217072
1.18982689396e-05
7.38810355796e-05
-0.000116324915689
0.0106486115112
0.000483614173243
-5.69803583333e-05
-6.35950119124e-05
-5.45722083515e-05
-6.90950926122e-05
0.000148341354291
-0.049254234415
0.0493986639075
-4.77667715997e-05
-6.38893542985e-05
-6.24423498479e-05
-4.82253470468e-05
0.000144969123033
-0.0494025927189
0.000564816532433
0.0106966522733
-7.38585616686e-07
9.0861648876e-05
-0.0107643933018
9.04108050571e-05
0.010593598036
3.78827654982e-06
7.42815754696e-05
-7.07233279847e-05
-0.0106592250979
6.44323887188e-05
0.000933462946875
-0.000108035213437
-0.000134750082557
-0.000101954262282
-0.000141962150278
0.0492060216574
-0.000181350379461
-0.000143317491153
-0.000189384800988
-0.000160289125027
2.86252345706e-05
3.91140485663e-05
4.6076089154e-05
4.44927533659e-05
0.0494208960351
-9.52809092874e-05
-7.58391353031e-05
-7.68546694142e-05
-9.42386773756e-05
0.000262133075911
0.049675199429
0.000938896048271
-0.00010268620624
-0.000125388776373
-0.000132847235573
-9.98547095301e-05
0.000201465031669
0.000102236022317
0.0106226926886
0.000100474796238
0.0103314532518
-1.38534501402e-05
0.000202671726581
-0.0104468839928
0.000153127642489
-0.000170242389226
6.47435462915e-05
-1.43566000659e-06
8.30243599299e-05
-7.29795775276e-05
0.0105275037198
0.0102590385039
7.93483099364e-05
-9.01592832868e-06
0.000153784913766
-9.9914996928e-05
-0.0103596148739
0.0500372467707
-0.000171753236337
-0.000131976070275
-0.000136937765089
-0.000156447178388
-0.00118067490892
0.000285839058329
0.00134904346439
-0.000143905574674
-0.000129141372924
-0.000134247157775
-0.000146698966023
0.0507106134596
0.000142004023164
-0.00160973879178
0.000221943798041
0.0102334845454
0.000172481302285
-0.000195584056003
-4.49418534099e-05
0.000239562820741
-0.0100213282068
0.000239833323097
0.00995257949175
-0.000266833603873
8.39142856159e-05
-1.45612591551e-05
0.000155629177685
-0.000110333664414
0.0101757968376
0.00011220558559
-2.26273415719e-05
0.000170808078589
-0.000154702178491
-0.0100048934842
0.00994603205011
0.000819836493153
-9.35700725746e-05
-0.000110948344437
-9.23498284178e-05
-0.000102381404172
0.000268668849436
0.050167502701
-8.92290414717e-05
-9.22677345139e-05
-9.46912335815e-05
-9.15723211502e-05
0.000278633474591
-0.0499401730001
0.000681935441745
7.45629319249e-05
0.0105051818495
6.31879126174e-05
-0.0105709554008
0.0102572382208
-6.94459583149e-06
0.000122881244025
-0.010346394749
6.90030835607e-05
0.0102580628113
-7.0241039947e-06
9.71240400071e-05
-6.99005894405e-05
-0.0103332950396
7.77734940203e-05
0.00109792529554
-0.000116770385115
-0.00013215239841
-0.000126946432735
-0.000115020225446
0.0506882230501
0.000353087813493
0.0504229072057
-0.000103513125799
-0.000100199956356
-0.000100361752561
-9.8282965675e-05
0.000312145797289
-0.000103127532263
-9.48186002281e-05
-9.91449207189e-05
-0.000101966892851
0.0507000724899
0.000893783415629
0.000326318864885
0.000125623583099
0.010180369453
6.98175823265e-05
-2.11990155385e-05
0.000153414318904
-0.0100222682935
8.44068741485e-05
0.0099610159046
7.32022711636e-05
-1.07852033553e-05
0.000100549293671
-6.7658321208e-05
0.0101892353065
6.84253044175e-05
-1.5841401288e-05
9.41942046577e-05
-6.59547676624e-05
-0.0100688740256
0.0100265431325
0.000100985705811
0.0101776366987
7.55395229521e-05
-0.0102435445319
8.40631823501e-05
-0.0100677526162
0.0100310891631
-1.41771685881e-05
7.0465813412e-05
0.000325516465894
-4.06428987347e-05
-3.5031182458e-05
-3.74409112766e-05
0.000427524069147
-0.000268148796079
-0.000284332692981
-2.42539191695e-07
0.000361854769659
0.000296787744971
-3.31142294297e-05
-1.53966040539e-05
-3.74391347613e-05
-0.000213342116123
-1.36183018678e-07
-1.18330449021e-08
-3.08070416085e-05
-4.68941665801e-07
-2.63383592376e-05
-0.000356493655498
0.000450130997377
-4.48528620286e-07
3.09734198574e-08
1.13664607629e-07
-7.54198456396e-07
1.64654389637e-07
4.311566693e-07
-1.5122579902e-06
-2.00691899272e-06
-4.75597743051e-06
-1.00322112672e-07
1.74077430921e-09
5.28729551009e-08
-1.46601874139e-06
3.49151110025e-08
-4.49555987035e-06
-6.81504605841e-06
-2.02931754813e-07
-4.3244309218e-06
-1.40563774793e-06
1.39493935523e-06
-7.41305055904e-06
-5.70419260792e-06
3.26869555281e-07
-8.37240947071e-06
-7.38788952127e-07
-6.62325724155e-06
2.59941064046e-06
-9.47608964647e-06
-7.79239627115e-06
0.000162411880866
-6.13881824881e-06
5.53114621289e-07
-9.96154893616e-06
1.19789126633e-06
-2.18146508295e-05
-0.000222592113629
9.13930771331e-07
-1.67365422279e-05
-7.31911129531e-06
0.000305545312861
2.15917196366e-07
7.11192258289e-05
0.000205642392496
5.35691471858e-06
8.42894839518e-06
1.36342573424e-05
9.07802480686e-06
-0.000320865214449
-0.000188055988855
1.70784712408e-06
2.04885407181e-06
2.7564618927e-06
3.92671206042e-06
2.5238690069e-06
-0.000206539326303
0.000140090308929
1.10373174801e-05
6.63181209993e-06
7.62036253839e-06
-3.80583657417e-07
-1.81670331684e-07
2.13342258662e-07
-3.5670571025e-07
-1.06380066918e-06
-5.07075004063e-07
-1.5014460931e-07
2.59825121766e-07
-1.14169200545e-06
-1.56928771779e-07
0.000269108209018
6.5416520022e-06
4.24199424897e-05
3.65735095755e-05
3.53369227206e-05
-9.53149222325e-05
-0.000297611741913
-0.000277029922456
3.25606284416e-06
1.7497494595e-05
1.75532210367e-05
2.27535641667e-05
3.42047925213e-06
0.000257277010042
2.95585916664e-05
2.1618286518e-05
2.74111481766e-05
-0.000389709986738
-3.97982408217e-06
-6.9591881709e-07
2.76255209364e-06
-1.01295166454e-05
-2.62579358679e-06
-2.3993954769e-07
1.53586357918e-06
-8.09741738458e-06
6.33605630082e-05
3.74689749451e-07
5.31154690825e-06
5.80137709543e-06
4.6956144538e-06
-2.33975123444e-09
-0.000833515249806
6.96960964688e-06
5.94800810086e-06
5.84725570508e-06
0.000881169495137
-2.4106546111e-05
-8.58807466726e-08
1.03222044831e-07
-1.20268962931e-07
-1.30571250398e-07
-1.04980161909e-07
-1.22246970898e-08
8.04902617347e-08
-1.47796497691e-07
0.000173808090548
2.56814893652e-06
1.89007814176e-05
1.82977562899e-05
1.66933608401e-05
-0.000594754896783
-0.000796654564859
8.19875050172e-07
1.06438147402e-05
1.23195120893e-05
1.23415148428e-05
2.22590253729e-06
1.68863522269e-05
1.5018087885e-05
1.54913103765e-05
-0.000781642577898
5.14993201112e-05
-2.4561442575e-07
-1.54628998742e-07
-1.78231723397e-08
-8.74134998458e-07
2.95568767493e-08
-2.23534682751e-07
2.27525093331e-07
-3.51067592283e-07
0.0122872459302
-1.95010206208e-05
8.46000736642e-06
8.18055242938e-06
-0.0123135172239
-2.99010635805e-06
-0.0122853927142
0.0122621013317
2.57476535405e-05
9.26477573702e-05
1.2834292454e-05
-8.77567589043e-05
-0.0108212232758
3.18426380529e-05
-0.0107762248943
0.000104930156598
0.0107025564042
1.90091705846e-05
0.012264458805
9.61818971109e-05
-0.0108404590682
2.27319814907e-05
-0.0123095871155
0.0122933002136
2.47592077496e-05
-2.61282543854e-05
-0.0123187389488
-3.96447972547e-05
-0.0123015312258
0.0122876506568
6.9122578809e-05
3.79626517521e-05
-0.0107830085993
0.0107121494242
5.29053864055e-05
-9.39284506606e-05
9.15870330683e-05
-0.0108512119556
0.0122731362496
5.37005411112e-05
-0.0123246559405
-0.01084664593
-0.0122510191837
6.59176758932e-05
-6.42020455299e-05
-2.99403435336e-05
0.0122327405426
-4.7221550036e-05
0.0122671788801
8.4007387274e-05
4.48645292937e-05
0.0106397638665
-0.000118898011252
9.2242090391e-05
-0.000125099056305
0.000121210487947
0.0105684230572
-2.24770489974e-05
0.000111400029466
0.0122566690033
-0.000129406036292
0.0105589030872
-8.53481461083e-05
0.0123223216705
-6.87492824584e-05
0.000110634864274
-0.0123382529864
-0.0123089016504
0.000102086758306
0.0123015494123
6.91199479108e-05
8.55258146855e-05
-0.0108197716656
9.53174750422e-05
-0.0107342983241
7.4612691423e-05
0.010666621525
-0.0123283231433
0.000129843064976
0.0123188863863
7.2048937343e-05
-0.0107868020849
0.0123402419938
0.000127635260245
-5.49478081815e-05
-0.0123528788707
-0.000148190642907
-0.0123612314107
0.0123663091014
0.000151487496573
8.46651170184e-05
-0.0106947354729
0.0106273116861
4.43825123661e-05
-7.00475068031e-05
-0.0107098453365
6.48148699858e-05
0.0123423835265
-0.0123714832611
0.000131151519261
-0.0107456724317
-0.00014786930936
-0.0123112067082
-0.000139735046795
0.0123181034702
0.00018230465026
0.0122870293431
0.00012302427487
0.000131010196172
0.000110748027813
0.0105300710436
0.000109098546213
0.0105911102706
8.1329839291e-05
0.0122898062504
0.000155288315752
0.0104970981475
8.70473071975e-05
-0.000181222181004
0.0123288777031
-0.000152254603123
0.000217137929241
-0.012291355481
0.000218168297116
0.0123227023368
-0.000177990456687
0.000144314633675
0.000126990526835
-0.000140794632575
0.000206069683923
-0.01041002163
0.00012513696914
0.0102928441438
-0.000137880176864
0.000252524120244
0.0123622322404
0.000102996395021
-0.0123403960098
0.000200860577925
-0.000124677455389
0.0123530033362
-0.000173770994473
0.0123694154112
0.000178173123672
9.31293372885e-05
0.0105570220304
0.000112212230009
-7.58559516208e-05
0.0104380449611
6.57885624292e-05
0.0123848579591
0.000204901617588
0.0104632439671
0.0123671909559
0.000234695452348
-0.000132135461229
-0.00026649661968
-0.0124026743379
0.012436080255
0.000264166329345
0.000177439299985
-0.0103804893182
0.0102749783367
0.000116528074364
-8.58094647138e-05
7.05248075252e-05
0.0124010804064
0.000235535810898
-0.000298246987715
-0.0124085595024
-0.000261199536497
0.012471346603
0.000326329458416
0.000175523051782
0.0123676817956
0.000258483670625
0.000135769776554
-0.000212244511082
0.000279221688299
0.000215558778218
0.0101106889987
-0.0002396403889
0.000213328012056
0.0101964680989
0.000143884649332
0.0124397174442
0.000174935736452
-0.000260913467695
0.000289635790676
0.000140655319638
0.0100809299397
0.000178415563607
-0.000321006501286
-0.000238823016433
0.0125678943
0.00034802761362
0.000120346436022
-0.0125506618677
0.000343534859649
0.0126611218098
-0.000326302227906
0.000116075080252
0.000265036567641
0.000221286859155
-0.000247691648855
-0.00999019864698
0.000215097616857
0.000201611525604
0.00992476664205
-0.000285432230455
0.000123412217984
0.000189043777897
0.000361860719886
0.0126565253408
0.000112421037425
-0.0124434619171
0.000327981670203
-0.000226218510149
0.0125006703173
-0.000298928921123
0.0124719525132
0.0002900610743
0.000184334991789
0.0101886348668
0.000188195334951
-0.0001361985574
0.0100810329392
0.000100332576971
0.0125217640999
0.000313602293616
0.0100847417841
0.000347236409975
-0.000216230386874
0.0125781603258
-0.0125851285057
-0.000352986263382
0.000339211764342
0.0126441235414
-0.0100022991889
0.000206003482307
0.00993135201076
0.000178794370386
-0.000143454038322
0.000105769980715
0.000332205507622
0.0126503790199
-0.000194766202942
-0.0124270922331
-8.24471801931e-05
0.0124486958282
0.000173921479051
0.0124004058073
0.00017044767993
-0.0123925182034
9.6699535472e-05
6.35639124374e-05
0.0104204856106
6.38960963052e-05
0.0104925559303
-0.0105577968425
6.83300642557e-05
0.0124192340639
-0.0124170838553
0.000152255426598
0.0104134299215
6.66386754541e-05
-0.000222111485981
0.0124674685139
-8.58397342879e-05
0.000197395177025
-0.0124386621091
0.000247640239378
0.0124696129529
9.6516054737e-05
6.47122566772e-05
0.000103182165644
-0.0103408127512
6.39732253402e-05
0.0102614559212
0.00022010074117
0.0124983626942
6.44894272903e-05
0.0124948190509
0.000176981898337
-8.62616859273e-05
-0.0124752218276
-0.000197386762641
-0.0125162542328
0.0125461728689
0.000175846691292
9.94061524383e-05
-0.0103348074909