/*--------------------------------*- C++ -*----------------------------------*\
| =========                 |                                                 |
| \\      /  F ield         | OpenFOAM: The Open Source CFD Toolbox           |
|  \\    /   O peration     | Version:  v1906                                 |
|   \\  /    A nd           | Web:      www.OpenFOAM.com                      |
|    \\/     M anipulation  |                                                 |
\*---------------------------------------------------------------------------*/
FoamFile
{
    version     2.0;
    format      ascii;
    class       surfaceScalarField;
    location    "15";
    object      alphaPhi0.water;
}
// * * * * * * * * * * * * * * * * * * * * * * * * * * * * * * * * * * * * * //

dimensions      [0 3 -1 0 0 0 0];
oriented        oriented;


internalField   nonuniform List<scalar> 
92311
(
0.20268036494
-0.00022089637614
-0.00120721305072
-0.202297500538
0.00104530690904
-0.000177093292561
0.202922408318
-0.000905659718838
0.000837112531993
0.202753739296
-0.000365836927309
-0.00125558725821
-0.202447238229
0.00109427572381
-0.000197518825811
0.202890025811
-0.000925121630989
0.000809898404815
0.202842438886
-0.000175068679218
-0.000161147706332
-0.00116395637589
-0.202372742135
0.000993473456847
-0.000158916784688
-0.000169365528549
-0.000125415205403
-8.85385147795e-05
-9.0183948114e-05
0.203183352751
-0.000884350290821
0.000792595180577
-0.000141871989587
0.0509591159237
-4.15914214317e-05
-3.09135906982e-05
-3.73654712519e-05
-3.30161393319e-05
-0.000345054944387
-0.0509414301513
0.000295287426035
-0.0509481151794
0.0509742729486
-3.22322227784e-05
-2.76678014373e-05
-2.53269854189e-05
-3.25060569099e-05
-0.000304925298205
0.000271223835456
7.62825877688e-06
-0.00125280031863
3.54372157624e-06
6.95795010779e-06
3.3437511971e-06
-6.34776588333e-05
0.00108843222508
4.18833264502e-07
0.000193795852922
-0.00151457503446
-0.000315534165986
-6.91542817426e-07
0.00150159191999
8.96239536777e-06
7.87873631427e-06
1.00480647945e-05
8.76559352916e-06
0.000331893423316
3.36977588237e-30
0
0
0
5.33104397078e-28
0
0
0
-2.53490382157e-05
-2.72029399614e-05
-2.45052943823e-05
-2.73778602157e-05
-0.000319657696556
0.000274040185287
3.20385365092e-05
0.00973470241575
3.61676346616e-05
-2.52894056331e-05
-0.00973644872588
0.00972187811606
-2.22112012126e-06
2.00485620028e-05
-0.00973602356744
1.44108686066e-05
-5.74262533164e-06
0.000257366294714
-2.84303094891e-05
0.0510197285579
-2.67581203651e-05
-2.90697519124e-05
-2.83688742631e-05
-0.000278554062484
-1.47725730852e-05
0.0509708834866
-1.57670070186e-05
-1.78873046741e-05
-2.01941848227e-05
-0.0509556110512
0.000220573511113
-5.46970629866e-06
2.67463321328e-05
0.00969991425239
1.22552131118e-05
-9.48313784834e-07
4.8077063943e-05
0.0127087019401
-5.39078775463e-05
-2.08654408716e-05
-0.0127095179976
0.0126895181593
5.48085913925e-05
-1.55134484922e-05
-0.0126960913081
-0.000316775752667
0.202700452838
-0.00184487582434
0.00166150885065
-0.202200394725
0.202930636796
6.88972214745e-06
-0.000528031496278
0.000509997517123
2.74219316029e-05
0.202983757596
-0.000401498251892
0.000326681046166
-0.0005387051908
0.20281554495
-0.00187931434725
0.00165680241915
-0.20237027991
0.203002783744
3.456039214e-07
-0.000676234054409
0.000570209795061
7.47877632037e-05
0.203121727004
-0.000512679468542
0.000348756862395
-0.00022814402331
-0.000250398076609
-0.000241671445836
-0.00183735233491
0.202819477377
0.00168912876598
-0.202282269585
-0.000207188869945
-2.36669045926e-05
-3.37442658176e-06
9.38569917677e-06
4.20727184688e-05
0.2032748088
-0.00058469480454
0.000469797056988
0.0509961360122
-8.4335018664e-05
-6.98354320631e-05
-8.20028625182e-05
-7.38030153728e-05
-0.000432945107314
-0.0509058550981
0.000424744030822
0.0510628015427
0.0002349599309
-1.9710128758e-05
-1.74787338407e-05
-1.08067164474e-05
-7.10472690085e-06
-0.000246385512283
-0.000392818839129
-9.75780652843e-07
-0.00145479058429
7.23418364733e-06
5.76800139781e-06
5.37086008707e-06
3.81052267089e-06
0.000366117126392
2.72778568215e-08
2.69420492202e-11
7.53034769193e-11
1.5780128214e-30
7.83052308553e-29
6.80077942788e-09
3.78379379745e-09
-7.37945799637e-08
0
0
0
0
2.24018080297e-30
0
6.41703704411e-29
0.000387669325371
-7.81895618971e-05
-7.10488973423e-05
-7.63019280628e-05
-7.15581560657e-05
0.051023576929
-0.000368259155808
-7.02311144703e-05
-5.70274672979e-05
-7.24785210492e-05
-6.24453159369e-05
0.0509899918943
0.000379401381618
-0.0509610952746
-1.92927037746e-05
8.72124366546e-05
0.00956830052756
6.35614366585e-05
-7.07663324991e-05
-0.00958297918264
-1.52368234265e-05
7.89665482785e-05
-0.00952666043138
4.21125790206e-05
-5.59014302885e-05
0.00951706823914
-8.03137087415e-05
0.012728367257
-0.000109112464429
0.000103834463506
-0.0127113310368
0.000183128315037
-7.1181647427e-07
5.02043765974e-06
5.55665064965e-07
6.89851788714e-06
0.0510869903271
-0.000222426067794
0.0509998506853
-2.58582425688e-06
7.225790702e-06
-7.73927929782e-07
3.28182727545e-06
0.000208315139193
1.18931573717e-05
1.62174630968e-05
1.0121336863e-05
1.49279593913e-05
0.0510042247248
0.000167814478597
4.01585535631e-05
-5.00724575147e-05
-9.5925640138e-06
0.0127090538992
-7.16259130683e-06
-1.13238054652e-05
-0.00957688335966
-1.36415740895e-05
0.0095736505403
4.81912276648e-05
4.93808787052e-05
-1.06993053101e-05
0.0126876660875
-0.0126715392166
7.49336086512e-06
0.0126674277283
-3.83346097935e-05
4.46168756297e-05
-0.00139652004442
1.16425599676e-06
2.16682229398e-06
9.76345451741e-07
0.000124021766733
2.0424617808e-05
-1.27322179081e-07
-5.60054264942e-07
4.58632713451e-06
2.13374689172e-06
3.58151588396e-06
4.63010657096e-06
-0.000847018259481
-0.0001600544151
0.000719639480864
-1.74845361013e-06
-1.15674547127e-06
1.66702798613e-06
1.77135317369e-06
1.89376799053e-06
-1.30977571869e-06
-2.93701893448e-06
-2.40620478749e-07
5.90763410683e-06
5.4062249843e-06
6.28663025441e-06
0.000226545279818
-0.000127499655255
-1.16329756653e-06
1.23179107655e-06
1.3093360906e-06
9.01652351644e-05
0.0127240256994
-9.51505535445e-05
-0.0127277254597
-0.0127190348599
-1.10802643779e-05
-8.52398883171e-05
0.012707937185
7.67132965966e-05
2.58516417919e-05
1.51295671534e-05
0.00973266615454
-1.66660700349e-05
2.56395926073e-05
0.00978870327471
-0.00979124879127
4.79550807389e-05
-0.0127207044517
8.09172715318e-05
0.00978775294414
3.49744816841e-05
0.0127119673434
-9.08309080356e-05
0.0126971559165
-6.65811517305e-06
-7.63777413513e-05
6.79413892632e-05
7.28236519778e-05
-0.012700072651
0.0126961339672
-7.74254518954e-05
1.9187142243e-05
8.41779175925e-06
-1.15438178551e-05
1.8325184334e-05
-0.00978578400469
0.00976833691384
2.60229002643e-05
0.0126951938095
6.72648827412e-05
2.92919582013e-05
-8.38282374616e-05
-0.0126964931959
-3.39382225678e-05
-6.24198755051e-05
0.012700430106
5.96450497789e-05
6.78793515978e-05
0.0126971903197
-7.14351712044e-05
1.1060940525e-05
3.38827346857e-05
0.00966855827105
4.53525760251e-06
2.4232003128e-05
0.00974312799111
2.75812984927e-05
6.3950213309e-05
0.00970475775313
3.00699108792e-05
0.0127025545559
-6.59512583723e-05
-2.31903292863e-05
-0.0127115071001
0.0127128167644
-5.73819247552e-05
6.8692365823e-06
-0.00963702529662
0.00960939885215
2.08185982206e-05
-0.00966637095325
3.25406045471e-05
0.00963663456232
-3.36113985228e-05
-5.91414746007e-05
5.54481326317e-05
9.0375420631e-06
3.38215097216e-05
1.35073580159e-05
3.07820691886e-05
-6.13979277156e-05
-8.36711496399e-06
-0.012690940042
0.0126814799011
5.58032106185e-05
4.69735687315e-05
-0.00971753695399
0.00969555720857
-0.00972317491154
0.00970755603223
5.63784890573e-05
5.78757790245e-05
-2.30629933206e-05
-0.0126942471715
1.8061976702e-05
-4.33054567854e-05
-0.00974768235492
5.58455312861e-05
-0.012693098432
5.66767739123e-05
-0.00974653240707
4.28799735453e-06
7.33085550465e-05
1.59207678134e-05
1.16688692054e-05
1.4098713303e-05
1.87807414674e-05
-0.00135418463135
0.00101553319997
0.000138195737793
-2.96034051099e-06
-1.61454044425e-06
1.99020609733e-06
2.22773447663e-06
-0.00110689112979
5.57872278364e-06
2.17441552733e-05
1.96330666853e-05
2.16460167898e-05
0.000187859779438
-9.57030327514e-05
0.000854342712209
5.00237155921e-06
1.80280562782e-05
1.48921251172e-05
1.9537039845e-05
-0.00140071988637
0.000225161491487
-5.85019901699e-06
-3.36472511251e-06
5.54905405114e-06
2.68351887229e-06
-3.83353477536e-06
-5.19699048987e-06
-6.65284890392e-07
-0.00100237320181
3.38190600046e-06
5.65794210702e-07
-1.21724604223e-08
3.25461088135e-06
-0.000197952226324
2.16590039627e-07
-5.16675800533e-07
1.77556903651e-07
-4.29131376653e-07
-2.86835298363e-07
-6.41936307408e-07
0.000366354864832
1.62889055571e-06
1.80500721112e-06
3.52773727832e-06
3.3270586094e-06
-0.00111025183579
-0.000218475255099
2.53358230873e-07
1.51877447076e-07
1.28723872841e-07
-8.58701012005e-07
6.28609903167e-06
3.20400161826e-06
2.72981463772e-06
-0.00132059181526
0.000283444903331
4.31025880178e-07
-2.09628285777e-07
-9.45045804641e-05
-0.0126949978203
-0.000105257331309
0.0127080756131
0.000103484832792
0.0126988604471
9.46912258081e-05
-8.65717643563e-05
-0.0126878767565
0.000101676633222
5.74257454208e-05
0.00954816184209
-6.66307624306e-05
9.08971933531e-05
0.00960219539184
-0.00961779557374
5.84666535539e-05
0.0127087168269
-8.38680739791e-05
-0.0126827363138
0.000101415756829
0.00958224806274
5.04039625456e-05
-9.59825899843e-05
0.0127223907801
-0.000102658531314
0.000106969978501
-0.0127198351779
9.67026119248e-05
-8.37851123815e-05
0.0127144949237
9.98708773588e-05
4.71632326571e-05
-6.24491710751e-05
7.87752875113e-05
-0.00956149610298
3.16331393856e-05
0.00955519562583
-8.33817918549e-05
0.000106302937473
0.0127204995373
3.89718195224e-05
0.00967208406055
-4.07191758241e-05
4.41327351205e-05
-0.00968982873294
4.93666591066e-05
-3.20713655362e-05
0.0096701716267
3.50332580813e-05
-0.000105810685508
0.0127287197571
9.90037008107e-05
0.0127300306131
-9.03756725912e-05
-0.0127126063715
6.1512296144e-05
-0.00961984491608
0.00961699639928
0.0127307310163
-0.00963812006983
-1.11214229608e-05
0.012714481349
-5.69227142601e-05
2.81052774216e-06
0.00958966575707
2.65084766718e-05
0.00961608699735
2.85118113312e-05
-4.23452224717e-05
3.23763277627e-06
0.0127067924797
3.05702793832e-05
-2.49683543891e-06
-1.86575842206e-06
0.00958122707855
2.96715010221e-05
0.0127166801781
-5.39434747223e-05
0.00960438414901
2.36807036569e-05
-4.11249273595e-05
0.0127036895202
1.50167789717e-05
2.74506704944e-05
-0.0127171240867
3.28358478786e-05
0.0127199917135
-4.27960685032e-05
-8.32035244296e-06
-5.70509028246e-06
3.68053718249e-05
-1.99033822195e-05
-0.00960371830331
1.28423145522e-05
0.00960881738924
-4.94964533689e-05
1.81811442958e-05
0.0127034305908
1.90704894493e-05
-0.012678788448
6.97277085017e-06
-4.30770431007e-05
4.88647801574e-05
-3.18242188205e-06
5.32891121805e-05
4.43467791586e-05
0.00967754543487
0.0096977743365
5.13398555682e-05
-4.08928797898e-05
0.00969492347758
4.96955812068e-05
-5.45090443209e-06
0.0126826106084
0.00966426758324
0.00969399398602
-3.4805540949e-05
4.67485925795e-05
-6.35761498021e-06
-3.01620488599e-05
0.00969310060173
4.29610942786e-05
-2.84046631417e-05
0.012669545318
3.49166669034e-05
0.0126791344936
5.96340594634e-07
-1.27447760423e-06
-0.00965762975941
0.00965443550439
0.0126809243628
-2.41618421918e-05
2.45086952067e-05
-3.84657011552e-05
-0.00036812681721
0.203562515258
-8.40207900682e-05
0.000277952474664
0.000147123532292
4.03654176274e-06
3.16649573426e-06
5.15510671256e-06
5.32104398231e-06
-0.000201728640861
0.0510997356462
7.73503884153e-06
-0.000245783179279
-8.27026879074e-07
6.98836681559e-06
6.04994621225e-06
7.80089129464e-06
3.66537561666e-05
-0.0010488658478
0
0
0
-9.94426560233e-31
-1.91483049898e-29
0
-1.38758695926e-30
-4.08719168894e-05
-4.68793083417e-05
-5.38716784892e-05
-3.5624405052e-05
0.000189828377515
-0.000362796028036
0.0509952630074
-7.04001750409e-06
3.53833426946e-05
-1.7747248496e-05
0.00966849222912
0.0510098413317
5.55104277173e-06
1.16022026674e-05
9.30924059388e-06
7.21891793996e-06
0.000132495673242
0.0510258881155
-6.1899323467e-06
-1.53784852503e-05
-1.42438061588e-05
-5.70822259026e-06
-9.14108674271e-05
7.86359158154e-05
-1.0228487383e-05
0.00956630576306
-2.82443608487e-05
6.68428038146e-05
-3.86620729037e-06
-3.17763946467e-06
-2.43424827928e-05
0.00969040348404
3.9488650623e-05
0.0096523158095
-1.0553259316e-05
2.64267668926e-05
-6.91123493295e-06
-0.00967117930436
3.03859255259e-05
0.0510532515901
-3.55473878e-05
-2.95383333577e-05
-2.92887580898e-05
-3.70324509413e-05
0.000118502480292
-1.8780427e-05
4.52744034235e-06
-3.1290317207e-05
-3.22248973073e-05
-2.90213717161e-05
-3.26777475238e-05
0.00011310123413
5.87255540736e-05
0.0510593332041
-5.24854879429e-05
-1.11064381024e-05
3.57625824124e-05
-9.05707390281e-07
0.00962422598315
2.58921775568e-05
-5.9174951831e-06
3.2866330858e-05
1.51495465333e-05
-0.00958197206114
0.00956602616442
1.97089727679e-06
7.04240947983e-06
4.14647271613e-06
4.4505324763e-06
9.43685260268e-05
-0.0015859505699
2.11306202377e-06
-0.00106744270999
-6.57017918119e-07
6.30621708932e-06
4.90981319107e-06
7.10404324813e-06
-0.000244364685268
-6.99641951353e-07
-0.00086521815513
1.10368926289e-05
8.19912516097e-06
9.2720022404e-06
1.5799458123e-06
-0.000147141545042
3.90380337276e-07
-4.40850432153e-07
1.05404408655e-06
9.37599129721e-07
3.23843917115e-07
-3.20688176081e-07
1.28434093872e-06
3.40702316083e-07
-0.000577705787215
1.1102303549e-05
9.94083382604e-06
9.19211960093e-06
-0.000284517418554
-6.08628702304e-07
5.50165593817e-05
5.83551755446e-06
6.07413397973e-06
6.28700549887e-06
-0.000400486629357
-4.54532942165e-07
-0.0003897453298
0.000267387881891
-0.0127247478796
-2.53089852551e-05
9.86036364304e-05
-0.000103580509246
0.0127141895592
-0.000102413842413
0.0127251133416
4.43737339555e-05
0.00961313217851
-1.67165321449e-05
-7.52409749204e-06
1.78477842071e-05
0.00967060888818
-0.000105369379631
-4.34388955123e-06
0.00961406442874
0.0127151477374
-1.38447099812e-05
-0.012705385285
7.18735521008e-06
4.06486027105e-06
0.0127118306567
0.0127223467278
2.36148628174e-05
-3.42406023942e-05
-1.34433016614e-05
-4.04809316557e-05
7.68451442045e-05
0.00956408434671
-1.42264771205e-05
0.00960778186039
4.34551008197e-06
-2.64466742693e-05
0.0127255324513
1.1583691785e-05
-4.47695863427e-06
0.00960285310066
-0.0126825990499
-9.01397353968e-06
1.24180432529e-05
0.0126891563869
-2.11761351366e-05
0.0126719004565
2.71837023631e-05
2.15882479495e-06
0.00965275505082
-1.7094668754e-05
3.58554168499e-06
0.00968187672973
3.5844439702e-05
0.00964563531795
0.012679839317
1.55822347252e-05
0.0126928492547
-1.48502403756e-05
1.87483966387e-06
3.83431187958e-06
8.23208385302e-06
-0.0126827928365
0.0126908629838
-4.27663883129e-06
2.42750485638e-05
-0.00963420729419
0.00961815425995
1.67811303444e-05
-1.21325133296e-05
1.23309971538e-05
3.43792973551e-05
0.0127006890618
1.12111528441e-05
1.18708742529e-05
6.46541580051e-06
-0.0126997337831
-2.92576452598e-05
-2.22749934174e-05
0.0126906941337
2.50573283962e-05
1.57302385155e-05
0.0126932040738
-1.11149866122e-05
3.11311559389e-05
0.00959691156018
2.36839415318e-05
3.03737408585e-06
3.31082152111e-05
0.00959947422643
1.8622285485e-05
1.90647144268e-05
0.00957986968
2.31579328015e-05
0.0126850352421
-1.79425337242e-05
0.0126828699538
-2.64439894666e-05
-2.62447771865e-05
2.87793132653e-05
3.07302425958e-05
-0.012677904429
0.0126725844944
-2.64361798706e-05
2.80676374762e-05
-0.00956368146444
3.56574845371e-05
0.00954728361308
8.72167060602e-06
3.01911678715e-05
1.00026005923e-05
3.32581430008e-05
0.0126784415941
2.99490102708e-05
-2.2348067475e-05
-0.00063821818894
-0.0492028121193
0.0492054451747
0.000764681954103
-0.00013623528567
-0.000109678046155
-0.000137803280996
-0.000108425649354
0.000363041549604
-0.000782953286114
0.0497337744921
-0.000157481855804
-0.000126758894351
-0.000154542289609
-0.000132384961364
0.000445438117056
-0.0495934203119
0.000768291229567
-0.00115951027369
-0.0499741281894
0.0502739506306
0.00100649581629
-0.000129617505481
-0.000135373742542
-0.00012371840074
-0.000136679241653
0.00037851631061
-0.000898655262764
-0.000118065426196
-0.000126900233296
-0.00012378428619
-0.000126418276907
0.000371251544812
0.0503634299183
0.000815343508729
-0.0501561380167
1.52752721973e-05
-0.000121381830895
0.000288488372795
-0.000381864740223
0.000111201331183
2.95653871889e-06
1.77311809547e-05
1.40809865932e-05
1.57718786832e-05
7.42723668363e-06
0.000486671339717
-0.000566357485933
0.00024516252607
-8.32843885796e-07
2.09586755202e-06
9.56223631371e-06
3.77252540045e-06
-0.000158740563571
1.51474188362e-05
-0.00011042541294
-0.00106181212547
3.08123560362e-06
1.79243717796e-05
1.58526481441e-05
1.87432051011e-05
0.000986510363656
6.9626954204e-05
1.70157300817e-05
-0.000289358323428
0.00110414471465
-0.00112189124199
0.000265064137312
-8.06626335098e-08
1.52010941369e-05
1.77507714351e-05
1.63502550793e-05
1.37933882844e-05
-0.000187638140039
1.19006785574e-05
1.13412768333e-05
9.12705093839e-06
-0.00145541617629
6.85646552753e-05
7.03855723378e-07
0.00149552193445
3.02758159019e-07
4.39003642371e-08
-7.69868706705e-07
-6.58157819261e-07
-7.69673703394e-07
-6.01674349657e-07
6.06597533944e-26
-3.51861019133e-08
-1.07930641613e-26
1.02900915731e-07
5.97313885949e-07
1.39356970245e-07
7.15528510997e-07
2.45232295256e-07
1.05790578679e-06
2.20335501975e-07
-8.84186223925e-09
-9.98678674947e-08
3.99375626966e-09
-8.41967791514e-08
1.15152787018e-08
-5.00371143926e-08
-5.19436985079e-08
8.64776439009e-08
0
1.85801556582e-07
0
0
1.37760570556e-07
-2.04053282693e-07
-1.25274930077e-07
-1.19333287958e-07
-4.4928543916e-08
-1.0539924217e-08
-2.32566402808e-07
8.9214981619e-09
1.04164356604e-08
-5.68183972149e-08
-6.4618992932e-08
4.481540113e-07
-6.03147624212e-08
0.000179142825427
-9.39835302646e-05
-0.000107830648479
-0.000113966684241
-9.02305250369e-05
0.0489564951071
0.000399920714615
5.96205634129e-05
-0.0491889309489
0.0490029219546
0.000400070050689
-9.16795669707e-05
-0.000104649556719
-0.000110241325469
-9.45570198316e-05
0.000385539913337
-0.0492080281039
-1.74811015015e-05
0.000125645122444
-0.0106385270892
8.60191274189e-07
0.0105909179547
1.88999862757e-05
0.0105455535635
3.18876645459e-05
-1.6041507952e-05
0.000119431813923
-2.74653195232e-05
-0.0105864068417
-0.000127414824589
-0.000114550708682
-0.000114070153443
-0.00012410954032
-0.000325478070886
0.0122605619416
0.0121594680727
0.0122143129338
0.0122285644906
0.000307419624807
4.32357970199e-05
-1.73302252304e-05
0.000137875299751
-3.75679716133e-05
0.0104882980372
0.000544846849659
-7.74509884589e-05
-9.98209019884e-05
-8.23296442096e-05
-9.7108917421e-05
0.000325279201957
-0.0493159982114
0.049399936395
-7.79556942239e-05
-9.89152999057e-05
-9.82807199877e-05
-7.73014800872e-05
0.000305500442475
-0.0494241662083
0.000616123847705
0.010533760137
-1.37552519809e-05
0.000104629368892
-0.0105713133916
3.555700899e-05
0.0105304555913
-1.28584124654e-05
0.000102181840199
-4.96319150954e-05
-0.0105755354745
5.17815298629e-05
0.00104845136647
-0.000112555354806
-0.000118073682185
-0.000115842060504
-0.000119926035733
0.0493062044692
-0.000223146908441
-0.000183523149547
-0.000242366238898
-0.000193933518771
3.36572255263e-05
4.77292678262e-05
4.14052784381e-05
3.68870933814e-05
0.0494384041482
-0.000140985524656
-0.000115144533419
-0.00011186402397
-0.000144011108262
0.000455213048501
0.0497194405457
0.000963892092276
-0.000127071839513
-0.000144086511568
-0.000140180871095
-0.000131256504043
0.000345687400191
0.0001199550161
0.0104851545648
4.89575737216e-05
0.0102067706379
-1.53958042552e-05
0.000153118321058
-0.0103098271359
9.85220355069e-05
-9.88910478153e-05
6.16598726202e-05
-1.41857210578e-05
0.000116792246222
-5.8500247038e-05
0.0104780120895
0.010197332731
9.35894731194e-05
-1.91872819501e-05
0.000177261320915
-9.32781629431e-05
-0.0103019954275
0.0500238860539
-9.14079001019e-05
-0.000118789379893
-0.000116430558824
-0.000101708692172
-0.00127239077189
0.000236028291661
0.0013218181836
-7.25042245991e-05
-5.22461498986e-05
-8.04278963951e-05
-4.43734467498e-05
0.0506097928511
1.84972170374e-07
-0.00165893823827
0.000128691854011
0.0101034575654
0.000118274312393
-0.000128239664382
3.51753709479e-05
1.44784433323e-05
-0.00997294102644
0.000171154555229
0.00992775474271
-0.00020298291722
9.62607564847e-05
-1.55373190257e-05
0.000167619906281
-9.90172332025e-05
0.0100895235138
0.000106952494654
-1.32519189121e-07
6.74549679726e-05
-0.000125175525837
-0.00991112159454
0.00984872091072
0.000874743728026
-0.000149012137844
-0.000160510228739
-0.000146249723257
-0.000163879315469
0.000468256419849
0.0501043972039
-0.000149480309876
-0.000164562955202
-0.00016327968209
-0.000151719407586
0.000480118115185
-0.0498823352396
0.000801628997646
0.000124769044692
0.0104588418695
6.79639225644e-05
-0.0105183002641
0.0101632106162
-2.00154714473e-05
0.00018017698563
-0.0102750127546
0.000102445346902
0.0101023328311
-1.85203418448e-05
0.000184185217126
-0.000117807932927
-0.0102195777233
0.000125203599368
0.00107802773093
-0.000101959768635
-7.48733115807e-05
-0.000102240449598
-7.834581086e-05
0.0505906102371
0.000284721753233
0.0503699439302
-0.000130148111431
-0.000135971900431
-0.00013290760679
-0.000131126269004
0.000372375548242
-0.000101166806893
-8.38001707733e-05
-0.000103655157779
-8.38331003612e-05
0.0506020988905
0.000899403809795
0.000319305130957
0.000167224682392
0.0100514501106
0.000105083532779
-1.8212719423e-06
5.98602877476e-05
-0.00985845201821
0.000105652368851
0.00979554062562
0.000135136366925
-1.60339472124e-05
0.000164907312524
-0.000125045179486
0.0099905499173
0.000128512826889
-4.46303761966e-06
6.82814516089e-05
-0.000118071232641
-0.00978964364343
0.00972507427541
0.000161824280531
0.00999426231247
0.000140105420275
-0.0101043011803
7.54781771775e-05
-0.00979223432584
0.00971873305893
-3.59457845955e-06
0.000136147065794
8.72877873766e-05
1.41413543691e-05
1.92159855521e-05
1.51271041324e-05
-7.22067787521e-05
-0.000143353167022
-6.60785472824e-05
6.44094045776e-06
-0.000112103052306
2.90761691599e-05
1.71440377116e-05
1.26146659679e-05
1.33479892823e-05
2.099016394e-05
4.82149035377e-06
3.67076373683e-06
1.83014051941e-05
1.98398680703e-05
2.08868839108e-05
-0.000119915937453
-0.000237123374329
-7.42046658952e-06
1.32305602188e-06
-5.04175564671e-06
-2.59083314893e-06
4.2842096681e-06
1.38255115754e-06
-6.27581728572e-06
-2.98483088766e-06
-4.64707813645e-06
-7.60490548837e-06
-4.58860087411e-07
4.30078032869e-06
-8.85798844612e-06
-7.97570611899e-07
-2.24058145465e-06
-4.98266403411e-06
-4.27897370179e-06
4.3914143744e-07
4.7057782005e-06
-4.10582206809e-06
-1.68652839824e-06
2.13383205891e-06
5.86481281881e-06
-7.03939213394e-06
-2.67276864986e-06
1.45226361889e-06
-3.01783954737e-06
-2.07656298464e-06
4.20083812383e-06
-7.41696016757e-06
1.07315431713e-05
1.37886694506e-05
1.12996396288e-05
3.40763019127e-06
0.000216844263752
-0.000601193442181
1.28882788849e-05
1.01851646777e-05
1.02614530348e-05
0.000506789144128
2.93672394118e-06
-8.51469728949e-06
0.000188349141155
1.51174329136e-06
1.59326124627e-05
1.53722524536e-05
1.51957803719e-05
-0.000153430206525
-0.000706831055104
2.95953235173e-06
1.38938827171e-05
1.70640579032e-05
1.66062789892e-05
1.28038773007e-06
-0.000805561799263
0.000213032740426
1.79628984966e-05
1.80996412153e-05
1.70307269921e-05
-4.74338787145e-06
-1.02907028594e-07
3.19752822198e-06
-4.26110494326e-09
-6.23470986046e-06
-3.40617285341e-06
2.44342359639e-07
2.29684766214e-06
-4.96576649684e-06
4.34055454303e-07
0.000219077171144
-4.43019755773e-06
-2.35959870971e-05
-2.11444352228e-05
-1.40174703968e-05
-0.000581005661111
-8.4457013315e-05
-0.000876333014358
-2.71849569724e-07
1.33981996589e-05
1.29683171326e-05
8.81478785883e-06
-2.62044544286e-06
0.000301085218478
-6.14153339257e-06
5.29568095972e-06
2.2171054914e-06
-0.0009169830479
-5.91424738275e-06
3.91880604841e-07
1.87714072935e-06
-4.78278252076e-06
-6.40456907964e-06
2.61199869715e-06
7.39523406044e-06
-8.90276370354e-06
0.000173283936514
1.26754003493e-06
1.83963520291e-05
2.05062869539e-05
1.89535874167e-05
1.39694746448e-06
-0.00132384350099
1.89707897117e-05
1.74069581771e-05
1.77155135436e-05
0.00132325220775
8.43196225483e-05
-1.6317416778e-06
1.35374248587e-06
5.92158426117e-08
1.30445032342e-07
-2.36656086531e-06
-1.81554998215e-06
1.81278120368e-06
-1.50313450138e-07
0.000301783121592
-1.31514885485e-06
7.45529386017e-06
2.92520873245e-06
9.62955008894e-06
-0.00110994517319
-0.00131368927241
1.12358721075e-07
1.68258263464e-05
1.45463941301e-05
1.54894149596e-05
4.55799052816e-08
4.7994459127e-06
9.04413843129e-06
1.01037896025e-05
-0.00128418419606
0.000246181310445
-5.03577600593e-06
1.0966253797e-06
5.42479995137e-06
-8.25531198721e-06
-1.98887362435e-06
1.46251165041e-07
-3.67322356561e-06
8.58042652377e-07
0.0122981180185
-9.9254149121e-05
-7.83673610443e-06
4.58597783721e-05
-0.01232841727
7.91571707191e-06
-0.0122979888248
0.012275484515
3.44154352237e-05
-1.34869507051e-05
9.35113449642e-05
2.87487415861e-05
-0.0106595533526
0.00013594625452
-0.0106264735452
1.80737499044e-05
0.0105783248944
5.58560932982e-05
0.0122743425034
9.40503748853e-07
-0.0106499768582
3.05129330721e-05
-0.0123307616421
0.0123067451287
7.50820074267e-05
-9.26480265975e-05
-0.0123327659115
-9.63626685058e-05
-0.0123186100254
0.0123065081316
0.000125032496224
0.000128462133135
-0.0106043713441
0.0105565902164
9.14250660091e-05
-1.13925377716e-05
1.42681693843e-05
-0.0106103907093
0.0122863980525
0.000104536676771
-0.0123491058433
-0.0106290697343
-0.0122744002838
0.000124279776862
-0.000163644674402
-7.64362417704e-05
0.0122638253417
-0.000101733432233
0.0122918093659
0.000140936120446
0.000141236774569
0.0104984665528
-2.43483035869e-05
0.000160595497341
-6.47659862173e-05
6.94556834792e-05
0.0104077815188
-6.10993212767e-05
0.000166507349957
0.0122864544318
-4.9325839134e-05
0.0104146292443
-0.000123508977682
0.0123591559545
-6.60845658976e-05
0.00013090938683
-0.0123757636177
-0.0123376283282
0.000136711379487
0.0123322451753
7.48189799724e-05
1.8240485493e-05
-0.0105909471555
9.57228559816e-05
-0.0105673759608
4.62848064956e-05
0.010528582744
-0.0123622113162
0.000142793507554
0.0123531065294
3.14695048079e-05
-0.0105896720672
0.0123743061541
0.000138546646217
-7.08651931367e-05
-0.0123868979351
-0.000149672503555
-0.0123912855497
0.0123906463847
0.000155058504425
9.97804378156e-05
-0.0105720898192
0.0105302145812
6.97633822938e-05
-3.37284265833e-05
-0.0105978368522
3.51552195263e-05
0.0123704070141
-0.0124007568839
0.00014260052119
-0.0105941744903
-0.000183079720921
-0.0123467972934
-0.00014757689508
0.0123506035916
0.000190159172611
0.0123247285148
0.000159474641813
0.000156460880736
7.3484767606e-05
0.0104016240687
0.00010929362976
0.0104821907983
5.55757319059e-05
0.0123265784744
0.000167219445586
0.0104035236909
7.21636527783e-05
-0.000201636687431
0.0123753494845
-0.000150021564156
0.000213052797577
-0.0123466512751
0.000227581399987
0.0123681144641
-0.000216279270912
0.000153950022324
7.91271435072e-05
-7.65717531455e-05
0.000157746363145
-0.0103176374132
9.34537663644e-05
0.0102154261094
-0.000184761251347
0.000237146696514
0.0124011194995
7.66699846202e-05
-0.0123672676275
0.000194255994527
-0.000152873066665
0.012375033971
-0.00017419997185
0.0123886680632
0.000178597305307
0.000115005752249
0.0104804097706
0.000158514498584
-7.4974514821e-05
0.0103930433677
7.77613167533e-05
0.0123988173354
0.000198867991768
0.0103988197159
0.0124020008679
0.000216502934118
-0.000158276321149
-0.000236544964138
-0.0124266688221
0.0124553415845
0.000239724789
0.000168687870818
-0.0103078224947
0.0102045502731
0.000163848467264
-8.05536896091e-05
8.49226521239e-05
0.0124292480729
0.000220964602928
-0.000286863955525
-0.0124478216165
-7.66959296566e-05
0.012469926423
0.000294948420192
4.37240175679e-05
0.0124044410798
0.000259801950578
8.24710172404e-05
-0.00025257510721
6.06014681596e-05
0.000131421752062
0.0100420161423
-0.000146215969559
0.000141351207738
0.0101134720107
0.000104651266454
0.0124306786525
3.58617097373e-05
-0.000290807005873
0.000266832931331
8.43478042298e-05
0.0100443914431
0.000118800742548
-0.000325392481284
-6.40051657177e-05
0.0125272737786
0.000327988701244
2.30237220719e-06
-0.0124993729034
0.000344083232273
0.0125738847101
-0.0003591017569
-4.49592337399e-05
5.07392478204e-05
0.000152529444473
-0.000178596091468
-0.00996694254954
3.27713232187e-05
0.000148065782501
0.00991517299562
-0.000335176709123
-9.35221909094e-06
0.000133598118577
0.000351531194698
0.0125853256331
-3.23473376989e-05
-0.0124773913324
0.000282383273547
-0.000110988070243
0.0125070885388
-0.000258075903761
0.0125002413863
0.000259862874927
0.000158466430582
0.0100983957828
0.000135724009283
-0.000108587483111
0.0100010246403
0.000102252911109
0.0125330089736
0.000281932821201
0.0100164990066
0.000303762390011
-9.5067890499e-05
0.0125526750594
-0.0125733889731
-0.000326712071456
0.000318099975149
0.0125983639858
-0.00993575439736
5.82426772439e-05
0.00987817082774
0.000114954879387
-0.000115943230085
0.000103309232972
0.000297197403535
0.0125919822595
-0.000195566929449
-0.0124248457287
-0.000167234152493
0.0124375729192
0.000193126440024
0.012408099094
0.000178254756905
-0.0124086635781
0.000162859328561
8.42885627115e-05
0.010369309141
0.000130443842818
0.010441039171
-0.0105030400752
7.48303142261e-05
0.0124202502642
-0.0124259191323
0.000178549569951
0.0103516970841
8.97227433323e-05
-0.000213972504082
0.0124639810255
-0.000169333890398
0.000207788999432
-0.0124463707944
0.000229104704294
0.0124755324113
0.000165455928468
9.33372485889e-05
0.000186206133489
-0.010255364112
0.000110505266808
0.0101414718407
0.00022150507345
0.0124930832522
0.00010253886883
0.0124762491507
0.000204805875312
-0.000171244642752
-0.0124517272028
-0.000215670953487
-0.0124882823998
0.0125134259572
0.000209311725132