/*--------------------------------*- C++ -*----------------------------------*\
| =========                 |                                                 |
| \\      /  F ield         | OpenFOAM: The Open Source CFD Toolbox           |
|  \\    /   O peration     | Version:  v1906                                 |
|   \\  /    A nd           | Web:      www.OpenFOAM.com                      |
|    \\/     M anipulation  |                                                 |
\*---------------------------------------------------------------------------*/
FoamFile
{
    version     2.0;
    format      ascii;
    class       volScalarField;
    location    "15";
    object      alpha.water;
}
// * * * * * * * * * * * * * * * * * * * * * * * * * * * * * * * * * * * * * //

dimensions      [0 0 0 0 0 0 0];


internalField   nonuniform List<scalar> 
28582
(
0.99999291772
0.99998860797
0.999978012756
0.999980725017
0.999991819653
0.999992895351
0.999974533361
0.999975237178
0.0541963894474
0.0572949915002
-1.3620959009e-27
0.999974853782
0.839767633534
0.841349445304
0.999976727123
0.999970740469
0.840783152795
0.99773729233
0.997602826241
0.999993779633
0.999958360378
0.999958766916
0.999978810262
0.99997744909
0.999971261401
0.999992234075
0.999993282147
0.999977027631
0.999979769908
0.0588746192863
9.4020133168e-08
-1.99674568966e-28
0.999973318585
0.999970525884
0.83853464883
0.828917064512
0.998202355172
0.999982039267
0.999970958397
0.999969058257
0.997753486002
0.832211734786
0.997516487338
0.997177235782
0.0548657747322
0.0561587986915
0.000220117559581
0.000285254247741
0.0558446694257
0.000168307443898
0.99821797837
0.998300220647
0.83977721512
0.842725437284
0.998306433817
0.842374877916
0.998204571205
0.998269050372
0.998066785703
0.84054357102
0.843434128761
0.998164412396
0.842944072287
0.998175150716
0.997830006374
0.997874248848
0.839997379134
0.842818264147
0.99800027862
0.841666055235
0.997741190717
0.997748689348
0.836229999932
0.83727987902
0.997732999362
0.838168198817
0.839533649024
0.9977254176
0.997553654516
0.83904158775
0.838924313908
0.997711223568
0.839996533529
0.997677561106
0.840626213092
0.0556400490195
0.000212427085427
0.056576057505
0.0580643196116
0.000345130322666
0.000380412897614
0.0577280857591
0.000218366130867
0.000283256358378
0.0591970090685
0.000208526089901
0.0601676232648
0.000226816738437
0.998142841619
0.998333028172
0.835104911331
0.840202938091
0.998139397072
0.998313225728
0.836985892017
0.997903039387
0.997568427749
0.831999568625
0.831132442773
0.997853598169
0.99766952343
0.833835998514
0.839649974418
0.837549363882
0.998136814213
0.998099955012
0.834205939732
0.997984469695
0.836737971984
0.99780098125
0.834525980791
0.835588462918
0.997758344338
0.833657267872
0.997851444723
0.834579618463
0.99772006975
0.997820630477
0.832942307932
0.834084821479
0.997851256972
0.99761218682
0.834003611663
0.997337774864
0.997452321597
0.837934100731
0.838136988218
0.838080916715
0.997420317771
0.837262542227
0.837854384544
0.837779863636
0.997030620355
0.997279098249
0.836180498556
0.997120818881
0.836466120366
0.999993996133
0.999981773644
0.0612192211317
-7.26180887687e-28
0.999969340241
0.836906077833
0.999967392062
0.999965478533
0.831290818995
0.837371808083
0.834640863097
0.999964527806
0.999963108051
0.833095696013
0.830339628895
0.0565942585868
0.060493698595
0.0615897742548
0.000198736358998
0.000196430749063
0.000170571873129
0.0626477445322
0.063245383051
0.997812229533
0.998081105199
0.833623687195
0.837200350511
0.997888903269
0.833850348024
0.998039664363
0.997438084076
0.997750663743
0.830518373614
0.833763882329
0.997660976006
0.997478453359
0.833193776776
0.99703491419
0.996982201796
0.835651897434
0.836842130452
0.997046667606
0.835094680389
0.996978059536
0.997043312462
0.996984316817
0.832814770376
0.835928260544
0.99703469654
0.834164702568
0.996993490858
0.996923911405
0.996946630331
0.831314102725
0.831142121225
0.996995447106
0.82986898992
0.996870797902
0.996822925927
0.996547879997
0.829357239275
0.830293330894
0.996679990188
0.829322101118
0.996744995053
0.999982392823
0.999982703088
0.999960332451
0.999960312072
0.045884750324
0.0484759068638
0.0469712324584
0.0493647248754
0.0500974329175
1.26749030291e-05
1.31862839497e-05
3.82931160697e-06
-5.046362509e-24
1.54113230755e-06
3.32836308661e-06
0.999983572233
0.999987675327
0.886701936527
0.881197713255
1
0.878426511937
0.999983602542
0.99998880807
0.879934584108
0.877172637033
0.999975713741
0.999985752195
0.999975538462
0.877507302922
0.865145032558
0.874616895208
0.862935777071
0.999957325469
0.999937860567
0.861074637282
0.853390296686
0.858357675367
0.847868028624
0.999972259535
0.999971388655
0.872987953519
0.861051811023
0.856375038626
0.999949148411
0.999958512253
0.999948800383
0.856440284513
0.844852579487
0.852380001178
0.84190459988
0.852236018487
0.843267641666
0.0441573331468
0.044887906291
0.0455524210497
0.000363882414808
0.000573080116361
0.000314095865901
0.000547330573951
0.000619242678662
0.000551621754792
0.000633083116305
0.000539845055854
0.0453520420415
0.0457048225429
0.0470104337668
0.0462786451253
0.0473332071416
0.000279677207576
0.000394148911286
0.000206965280008
0.000282052441994
0.049934815857
0.0486758346847
0.0500489517907
0.000484142147998
0.000592997265547
0.000405188050087
0.000651889434235
0.0480280793658
0.0484446964037
0.000132436496146
0.000141108526841
0.000145626202185
0.0506201843717
0.0498569735256
0.0513653471514
0.000279374061416
0.000660647841399
0.000165562581004
0.000375186752938
0.999162953024
0.999138027793
0.889136652084
0.88493230007
0.999124371917
0.887444318812
0.99916704616
0.999109217511
0.999062656537
0.883153474076
0.883372253156
0.999078772892
0.999095036146
0.885583582919
0.998798101861
0.998948636036
0.880271432174
0.874319241031
0.9989663728
0.998725057745
0.876127860557
0.99917176073
0.999112663215
0.881921205352
0.878534798301
0.999145081063
0.999147217488
0.88071682625
0.999030673528
0.998968995986
0.877962031746
0.879418527313
0.999010476245
0.99899498276
0.880223947588
0.998810893185
0.999011436902
0.873921317097
0.876195528116
0.998773051679
0.999047021078
0.873002939961
0.998474423225
0.997994409913
0.87000485522
0.864756776541
0.998439713067
0.998018352561
0.869332226571
0.998690792779
0.998866600073
0.875521876053
0.871401526299
0.99890701565
0.998646001804
0.872329889201
0.998383764558
0.997931062944
0.863768277537
0.867543123738
0.997942890361
0.998343046243
0.868513257624
0.997048822421
0.997493753472
0.857462666696
0.860421839784
0.9971547691
0.997463572268
0.856749190685
0.996629179634
0.996791831614
0.855035487335
0.85247063934
0.99681412118
0.85417612089
0.996556393361
0.996942023093
0.997416766906
0.859288806805
0.853816008683
0.997409026101
0.996931988013
0.855039903676
0.996544459614
0.996312652508
0.849829667614
0.850538303947
0.996531452925
0.851997795399
0.996322275953
0.998513648208
0.998782226665
0.869555371795
0.871032730481
0.998567078637
0.998739841711
0.867640485011
0.99821042588
0.997854691433
0.86569405437
0.859347338772
0.998272522386
0.997784114866
0.863864167916
0.998079599149
0.9975598962
0.857860774184
0.860394868247
0.997635572219
0.998013678128
0.86207267356
0.996838399759
0.997355114635
0.851720103525
0.854867086139
0.996874826136
0.997289750687
0.850294095163
0.996479937403
0.99635241383
0.848168310621
0.843396030112
0.996473553125
0.846529002946
0.996367768481
0.996758033731
0.997101786599
0.853596381765
0.848359139691
0.997164788471
0.996692808833
0.849248312247
0.996422082868
0.996381212006
0.8420938235
0.845096593419
0.996375243974
0.84557282491
0.996410000791
0.99630223462
0.996921906849
0.848781133169
0.851725987483
0.996454921529
0.996779854454
0.848827541555
0.996271119064
0.845887567812
0.996241188462
0.999985798611
0.999967447608
0.999966305505
0.99998025346
0.999993377659
0.999984682832
0.999981590578
0.999986605758
0.999985241883
0.999978198697
0.999990964619
0.999987200762
0.999900797315
0.999776902732
0.999977875632
0.999979673087
0.999928299647
0.999925372986
0.999960211787
0.999965540979
0.999957498533
0.999973197026
0.999931612177
0.999929438275
0.999942134823
0.999978474845
0.999989627123
0.999988256879
0.999981831463
0.999983277199
0.999966485716
0.999966973447
0.99998062525
0.999991143516
0.999993730226
0.999992258431
0.999993599288
0.999990652923
0.999968139807
0.999966217288
0.999977295008
0.999994085222
0.999996563673
0.999992925484
0.999982395109
0.999994176211
0.999996554647
0.99999114989
0.999116840984
0.999881014509
0.999990361858
0.999974473254
0.999890947034
0.999817971979
0.99987545515
0.999949047202
0.999678014928
0.999624149835
0.99997127396
0.999980124667
0.99994413333
0.999904660096
0.999925115914
0.999965086989
0.999917542841
0.999939669333
0.999979015324
0.999992810622
0.999985762124
0.999962617477
0.999961531931
0.999982355796
0.999985331036
0.999984166977
0.99998501973
0.999987351083
0.999991519264
0.99999335695
0.999993148041
0.999993249219
0.999985535163
0.99999044435
0.999995976729
0.999995920029
0.999092097746
0.999865030752
0.999994962431
0.999984874916
0.99986793014
0.999775801457
0.999878162894
0.999968887088
0.999140272662
0.999784458863
0.999993297314
0.999995217178
0.999980309432
0.999914369768
0.99990838517
0.999967294756
0.999968680924
0.999976473982
0.999988998389
0.999995098079
0.999996314131
0.999996552999
0.999996084749
0.999996820753
0.999995780804
0.999994629165
0.999994898087
0.99999575686
0.999997555563
0.999998132833
0.999998189954
0.99999773831
0.999998131628
0.999992424461
0.999993677675
0.999995850909
0.999998086969
0.999998528562
0.999998364603
0.999998847676
0.999993838008
0.999993921269
0.999995366251
0.999541048103
0.999725922268
0.999986716537
0.999989376233
0.999969063246
0.999821452274
0.999843572313
0.999920407159
0.999947509092
0.999933667156
0.999938931894
0.999962215294
0.999965943209
0.999950532147
0.99993955716
0.999945738888
0.999937039967
0.999949401441
0.99995981054
0.999964546972
0.999959161252
0.999936603297
0.999928807189
0.999941202968
0.999963025907
0.999961014905
0.999947340374
0.999964794363
0.999967576701
0.999956773356
0.999939085804
0.99994534918
0.999973710641
0.99997732693
0.999963063131
0.999935853855
0.999969755838
0.999966116167
0.999977175341
0.999979684755
0.999972203429
0.999956045144
0.999941551963
0.999974183967
0.99996312108
0.999963500515
0.0535422675848
0.0559145892743
0.0581545374405
0.0607200316147
0.0630816179711
0.0665135881883
0.0670954548929
0.0676796946907
0.051145334566
0.051868981106
0.0544831078562
0.057883044287
0.0597603412259
0.0598673382857
0.0640073276568
0.0646479812702
0.0648890090997
0.0641954560884
0.051735202102
0.0556681893571
0.0581967044115
0.0606383609984
0.0627166202558
0.0639828758478
0.0628460581927
0.0619155559653
0.0630005056962
0.0626916360032
0.0559616309385
0.059087678438
0.0624037317986
0.064363024927
0.0643744216409
0.0620871471204
0.0613445281193
0.0623964629847
0.0620819787288
0.0592827916153
0.0607330985649
0.0605733252113
0.0619441588971
0.0622549653879
0.0625686746435
0.0626056450797
0.0627377126625
0.0630436098694
0.0620142895535
1.52944545499e-08
9.4068692367e-06
4.58541141971e-05
1.17134751722e-05
-2.48895381108e-26
2.52046932158e-28
-1.09949897116e-29
-7.89319433416e-29
-1.59474649659e-27
1.78530654949e-05
1.66339686763e-05
5.89937173977e-05
1.51238570514e-05
-3.06509487403e-26
8.28767851365e-25
4.23810480608e-05
-5.66708697561e-27
-3.94302287459e-26
-8.05757720393e-26
2.15603871116e-05
6.48240046603e-05
-3.87380747976e-25
-1.40346992793e-24
-3.61212632242e-27
-6.86120607342e-28
-4.19326942693e-26
3.02985017068e-05
-3.90310059686e-25
-2.17500011736e-24
2.6824398166e-05
-2.10260036623e-29
-1.30371680479e-28
-9.44103329718e-28
-5.95533535066e-27
-3.32756304557e-25
-2.409646483e-24
-5.32502346929e-25
-1.56064225138e-24
3.0379935317e-05
-7.07398303874e-26
-2.28098864511e-26
3.79697660986e-05
-1.07520464696e-26
-3.89794414178e-26
-2.36973069786e-25
3.48614172339e-05
-6.48426817389e-28
-5.17690052252e-26
3.14602627567e-05
0.999811915261
0.999946440454
0.999946529276
0.999438291721
0.99943196501
0.999702968949
0.999608008608
0.99988810038
0.999946635125
0.999942296624
0.999739604488
0.999942300357
0.999696993162
0.999885149201
0.999972289759
0.999941149546
0.999940966761
0.999918350198
0.999923715741
0.999945773635
0.999981505744
0.99997319506
0.999952412393
0.999973033408
0.999932746718
0.999939697531
0.999983148019
0.999976013433
0.999551632225
0.99916591175
0.99933996107
0.999091950882
0.999354007898
0.999091855136
0.999392406641
0.999973851746
0.999721833694
0.999937940034
0.999763376944
0.999957949062
0.999755139529
0.999939278165
0.999572387607
0.999906702641
0.999923467332
0.999179497206
0.999278142714
0.999816527391
0.999669506684
0.999844910394
0.999921047906
0.999919747438
0.999680264106
0.999913544047
0.999726836585
0.999901106854
0.999468751929
0.999091950882
0.999471684992
0.999091950882
0.999475738344
0.999107995063
0.999498375528
0.999979020251
0.999855187719
0.999974147984
0.999886868564
0.999989810177
0.999886700656
0.999987406422
0.999378195013
0.999798169499
0.999785403294
0.999615877594
0.99963408081
0.999918196974
0.999916874619
0.999951293577
0.999827472914
0.999934525594
0.999827579539
0.999964649036
0.999928841107
0.999967939437
0.999681436033
0.999797634871
0.831322479974
0.837707896992
0.999597618221
0.99972594817
0.999732967261
0.831855145634
0.834137734702
0.836960587136
0.838284315725
0.999889304483
0.999815631651
0.999929755221
0.835658537014
0.840591536125
0.838997340296
0.84034704893
0.999992255896
0.999976945239
0.99998595931
0.841516144392
0.837883845844
0.839981093465
0.835135881727
0.99998745189
0.999992050751
0.999993051245
0.834746642491
0.828469718901
0.833027539168
0.828213376642
0.999899109975
0.999983183151
0.999945490144
0.826530444935
0.818855580622
0.826165713551
0.820489266584
0.999815442391
0.999885545622
0.999871862592
0.817544934641
0.820117837592
0.820028763478
0.820605601232
0.99991712009
0.999886456861
0.999932819841
0.820208628678
0.823293239946
0.819796496088
0.81799366562
0.999713433065
0.999931590252
0.999900310396
0.83437549684
0.819967495207
0.826700537559
0.810726183984
0.999932159256
0.999933541951
0.851164395502
0.845382249945
0.846263392096
0.842433750451
0.999938920603
0.999935741555
0.999941325224
0.843545090846
0.837751376768
0.839951136302
0.833306630434
0.999931624569
0.999945252161
0.999950091741
0.836244412154
0.837097533437
0.832360567387
0.831527967308
0.999949841312
0.999949611062
0.999949388013
0.837468652346
0.839246812268
0.831711401093
0.833674780666
0.999966383464
0.999942090203
0.999940644047
0.839236893213
0.833552562336
0.833545602397
0.829112311914
0.999962096391
0.999938631647
0.99994017948
0.833591507842
0.827707199669
0.828624389455
0.825328967524
0.99993900075
0.99993813248
0.999942077015
0.824900325178
0.820722657018
0.8249764502
0.826186562739
0.999940928861
0.999950655315
0.999960301505
0.82067507754
0.820896673756
0.825779325411
0.822519501003
0.999949466637
0.999966147815
0.999966503586
0.82023636353
0.817851077832
0.821539150146
0.821069623108
0.999945651932
0.999962882843
0.999968309798
0.826058581276
0.817899334045
0.829704875034
0.824590988481
0.999952691949
0.999951167166
0.999957774705
0.84390646296
0.840655587302
0.841397113903
0.838223452207
0.999963992862
0.999967226396
0.999970859356
0.838235939227
0.833020905094
0.836515092312
0.834117388406
0.99996345977
0.999970827025
0.999969608115
0.831823784467
0.829806279637
0.832817241164
0.82631901252
0.99994873324
0.999961894644
0.999950571865
0.82985676229
0.830666918229
0.824938688067
0.823174987565
0.999929476836
0.999930499383
0.999926773678
0.830716415404
0.828544850484
0.823225626239
0.822321063269
0.99993103574
0.999923289554
0.999931037755
0.82646615051
0.824331522392
0.821317140448
0.822658372526
0.999952627788
0.999945182677
0.999960729077
0.826610765065
0.829538674181
0.826785062984
0.834216043255
0.999961704364
0.999963750151
0.999962971279
0.828189594207
0.823454469616
0.832805807497
0.827713876542
0.99995818514
0.9999583399
0.999948490034
0.822702728891
0.822132701317
0.826880121445
0.825885197879
0.999956916015
0.999939709688
0.999954027034
0.830674311653
0.826030295047
0.834077266266
0.824945560409
0.842257779763
0.838727806055
0.999967822302
0.99997722586
0.837392350457
0.83505416829
0.840286689328
0.999963694811
0.999974131486
0.999967742498
0.833501112259
0.825373922466
0.837424578678
0.827410530517
0.999944411078
0.999955494199
0.999947238471
0.823707179812
0.822034829603
0.82564943789
0.825950737222
0.999937022257
0.999941312077
0.999944699782
0.82209487933
0.821683264731
0.82629307162
0.826689536183
0.999958638854
0.99995321213
0.999968596904
0.821383274686
0.823771194777
0.82695697049
0.827007224034
0.999977906627
0.99997716666
0.999978197275
0.826079942098
0.832933135876
0.827325353749
0.829533030307
0.999972578648
0.99997599772
0.999968478959
0.8326845052
0.828350635484
0.830371948553
0.82960565782
0.999949806757
0.999956510372
0.99993954716
0.827629275209
0.826676371345
0.829632215485
0.827374462895
0.999951307051
0.999937719413
0.999957518507
0.834536205378
0.8238681963
0.833629594558
0.822292816934
0.999965386047
0.999970119628
0.827606864595
0.829148426757
0.83857580369
0.999969715077
0.999971105742
0.999974365789
0.829282450497
0.829398498784
0.838056141015
0.834674073611
0.999980591517
0.999978699282
0.999980530611
0.829677127399
0.827678081657
0.834454177422
0.829868725998
0.999977697643
0.999980115544
0.999978919645
0.827497843245
0.829406668401
0.829001678873
0.82963986453
0.999966469684
0.999975263153
0.999972200438
0.830191883182
0.829889334759
0.829520281496
0.828596757931
0.999944423603
0.999966707988
0.999954476795
0.830137379629
0.826651783701
0.82923229712
0.825777962307
0.999964060858
0.999951966938
0.999970513997
0.83305465533
0.822191865253
0.833031153095
0.82437559152
0.999979316905
0.829650245009
0.999968757032
0.829147514093
0.828193530853
0.999961971509
0.828950209885
0.825467017138
0.99998135813
0.832987227336
0.824663914177
0.000217658129273
0.000184250235893
0.000235231548184
0.000218547393601
0.0527843164735
0.0519904446914
0.000342152949568
0.000305679680698
0.000457457439158
0.000537869867594
0.0548357293571
0.0527542250066
0.0544860228901
0.000435834974592
0.000502759870949
0.000964706683411
0.000851767240882
0.0573386150195
0.0564011200527
0.0576440103309
0.000545134292307
0.00029179170319
0.000405755211937
0.000281440024194
0.0593935476383
0.0586958541152
0.0597802087232
0.000225541744957
0.000272480592163
0.000236248433724
0.000340180895289
0.0615373589249
0.060571581393
0.0615569015208
0.000228719264854
0.000343507738637
0.000388360193012
0.000384535156946
0.0651782743064
0.0633785062735
0.0649078511556
0.000385329219683
0.000461078040358
0.000371472592526
0.000393741895737
0.0669689923624
0.0655044663472
0.0657473354433
0.000445219830215
0.000396884840918
0.000377310998735
0.000338992110989
0.0667634114733
0.0660374931138
0.0663448065715
0.000377855922001
0.000328654574788
0.000321154998817
0.000289415969134
0.0758693457718
0.0648964891925
0.0694609831228
0.000198036800364
7.49041442738e-05
0.00020106988675
0.000418573282068
0.0516444765818
0.0515824354806
0.0526132918393
0.000702566015985
0.000790154453917
0.000909551990406
0.000792055008554
0.0524007105965
0.0535202724634
0.0547088733349
0.00111287375465
0.00105409248594
0.00077336839942
0.00067475640247
0.0565197845797
0.0563046635379
0.0578481920463
0.000751353767763
0.000473579355154
0.000485099595264
0.000360607576271
0.0588609894169
0.0592908032862
0.0603290203216
0.000192291486641
0.00015005629961
0.000218788693354
0.000203270867656
0.0608149043688
0.061183343407
0.0618761171348
0.00014998065946
0.000336508563253
0.000204020512085
0.000344803325447
0.0616437020979
0.0613733997819
0.062739181976
0.00119357506302
0.000990223357001
0.00115087103747
0.00104770042863
0.0647174830877
0.0639844962827
0.0639119052193
0.000447988621949
0.0004088276137
0.000442202518847
0.000305249652883
0.0645730774851
0.0635949849252
0.0634806084583
0.000346772886192
0.000310163426076
0.000241274825232
0.000241283847622
0.0654321736316
0.063769558388
0.0644895700808
0.00027986659557
0.000221954534366
0.000208284069698
0.00014945145985
0.0701469566486
0.0632568903113
0.0686123307674
0.000187163303466
0.000307604394304
0.000158005689362
0.000272521342943
0.0536783638963
0.0521735484734
0.0541777455295
0.00110924969936
0.000524329854555
0.000975581274929
0.000511231623728
0.0570447022781
0.0563212448784
0.0578737860027
0.000274774442013
0.000283725555162
0.000250359505135
0.000280103650891
0.0593326438291
0.0592806779317
0.0606720980978
0.000292671007762
0.000286566728856
0.000341805062354
0.000383558161583
0.0618732036588
0.0620073044643
0.0630852344834
0.000285230343335
0.000290885263013
0.000395891413544
0.000406366372802
0.0633249559
0.0639408400727
0.0644690184799
0.000311143400506
0.000376384237324
0.000424033700669
0.000432583323891
0.0643630041456
0.0647575257751
0.0641593368573
0.000474960211097
0.000456924123371
0.000455799455801
0.000479095839148
0.061740745725
0.061812138074
0.0601128010978
0.000745598325711
0.000637388581774
0.000877563912615
0.00100590300165
0.0624427400407
0.0608150069111
0.0618234368303
0.000319473533354
0.000196686117517
0.00048016324078
0.000175238902071
0.0638767544185
0.0626266994554
0.0634431294822
0.000148894359695
0.000121986017109
0.000110133360913
0.000103540347452
0.0673663044809
0.0622813287301
0.0665615637506
0.000155750712719
0.000294434569806
0.00014319492734
0.000339048422436
0.0573688353264
0.0561213457301
0.000248907318984
0.000317486279042
0.000286060805503
0.0608874740788
0.0579496255376
0.0598324153878
0.000398437739929
0.00047764711861
0.000391575770139
0.000457058377088
0.0636494168773
0.061319337974
0.0624172387385
0.000509867427793
0.000521798829163
0.000477927552541
0.00048689302419
0.0646327844763
0.0629851001418
0.0631130406196
0.000533858400769
0.000527936292842
0.000490315425476
0.00049295677257
0.0632346035813
0.0628027424341
0.0622778963945
0.000504029781677
0.000442092875325
0.000462805847091
0.000373941100297
0.0613485388589
0.0619948218195
0.0618164250989
0.000350689196539
0.000272304345918
0.000267809602365
0.000196120154702
0.0619249486338
0.0618973141124
0.0622137313266
0.000236905272849
0.000175189058092
0.000171008113842
0.000172039393345
0.063088344121
0.0623731801912
0.0632874105404
0.000131536478835
0.00011239089707
0.00015765011712
0.000153531262999
0.0663904426162
0.0623935186735
0.0664731206386
0.000151867715253
0.000387579980107
0.000208309861175
0.000458195534793
0.060225768107
0.0575475601884
0.000368697522087
0.000351262628439
0.000173069660013
0.000151967688484
0.0608297926224
0.0583438126288
0.058883070698
0.000356790821289
0.000511109849474
0.000157973873319
0.00047010907979
0.0612397497411
0.0587971327964
0.0606181876538
0.000746037914649
0.000511357233783
0.00110146613592
0.000534983288713
0.0621392712836
0.0619086682423
0.0623055737754
0.000276262926738
0.00023278083321
0.000213278610119
0.000210441744685
0.0624633683351
0.0625679966047
0.0628350772417
0.000202816598969
0.000201672391344
0.000198878181921
0.000204404027681
0.063759006452
0.0628509576043
0.0641230128775
0.000176991380837
0.000178682820059
0.000175249584337
0.000177604043642
0.0663115051941
0.0623432526095
0.0659428324686
0.000256289985732
0.000515236421484
0.000252046585664
0.000506204242975
0.0620818862539
0.000195920419995
0.0631456882548
0.00019610972973
0.00020451947515
0.00016127853558
0.000163431601152
0.0642638568912
0.000173662390273
0.000173460082845
0.000138247481441
0.000127591414477
0.0654009717941
0.000230872671105
0.000469172490566
0.000165739884571
0.000430872153632
0.998873746053
0.998897666779
0.830950987916
0.83396553555
0.998931314953
0.83364689897
0.998803565385
0.998521827407
0.9983935536
0.836322828812
0.839129326238
0.998643194569
0.998326767193
0.836180432076
0.998933436764
0.998975132371
0.832317905005
0.83505281341
0.998950787588
0.83614335611
0.99898050307
0.998839840381
0.998790552019
0.833091338754
0.837704559806
0.998649962773
0.836995129277
0.998935368611
0.998658862458
0.998404419469
0.836958231696
0.837128440964
0.998680150066
0.998394951123
0.837830526622
0.998565347719
0.998157114728
0.839130979225
0.837568728274
0.998384593016
0.998315911812
0.83860761752
0.9981392166
0.998565511134
0.837543203787
0.838671353309
0.99839746436
0.839673773558
0.998328902428
0.997871057898
0.997811094667
0.839102494907
0.841439665509
0.997649486795
0.8403570884
0.998066002272
0.998010621612
0.997985986073
0.839435837558
0.839483991414
0.998164227613
0.997879184693
0.839618728655
0.997904726223
0.997825121777
0.841037248187
0.839733790463
0.997851991677
0.997841687621
0.839890348583
0.997532390317
0.997682367557
0.842463141966
0.842417530961
0.997562884986
0.84267828038
0.997628622967
0.997486937034
0.9974067387
0.840935970045
0.837514558164
0.997366805848
0.840866117232
0.997550063674
0.997801648284
0.997808073211
0.841278034431
0.839482815193
0.997821100793
0.997761058516
0.841125543977
0.997747187438
0.997560043646
0.83626611281
0.837641369158
0.997653876763
0.997668513753
0.8393883914
0.997043793068
0.997202648151
0.831678159604
0.834183548368
0.997204151119
0.831163227235
0.996916297057
0.996815419317
0.996023820101
0.82986498052
0.828366705484
0.996424885747
0.829780631247
0.996555024476
0.997451331771
0.997497310495
0.833386971204
0.831479429449
0.997565467224
0.9974414607
0.831146793213
0.997263105494
0.997037165185
0.828082074273
0.830171738266
0.996965911666
0.997318844263
0.829705612587
0.995305371266
0.995358737063
0.823961262873
0.826509696917
0.995915125678
0.824199020428
0.994734360663
0.994885610541
0.994470853807
0.821457309802
0.819739156498
0.994859542309
0.821634811719
0.99444829971
0.9959679822
0.996581316111
0.82603609999
0.823658227715
0.996518595046
0.996015848269
0.823352507691
0.995484894186
0.995363182521
0.819825235867
0.821659010639
0.995346067198
0.995490572202
0.821376962271
0.995246369846
0.994609818997
0.817579737941
0.819009404555
0.994919823253
0.819121428268
0.995052138464
0.995878980393
0.996456652316
0.81813580058
0.820266428697
0.996552265924
0.819461365382
0.995748202098
0.995610855219
0.995401337763
0.819171568196
0.820282683
0.995373763699
0.995653233064
0.81932378996
0.996131521814
0.99681185417
0.819945413089
0.820507321264
0.996835118563
0.996154286349
0.819471763548
0.997132943998
0.996853597307
0.820937898081
0.819396695153
0.996883555655
0.818801241224
0.9971124174
0.997166416965
0.997179549319
0.821806621262
0.819918630646
0.997092033156
0.819143898444
0.997230141434
0.997365813157
0.997194907599
0.819376610236
0.818611563606
0.997198482246
0.997394425982
0.818834007008
0.997338438583
0.99732933507
0.819104754196
0.817618372186
0.997248293106
0.997389929266
0.818550703443
0.99528339157
0.996715833618
0.826642948486
0.829353025937
0.996614710905
0.826120730423
0.995253199338
0.990685845879
0.988764880457
0.791732236082
0.815141491636
0.805541309153
0.989119098229
0.987754255288
0.995551690027
0.996985441954
0.828416449816
0.821535186633
0.996850894033
0.99581503705
0.822267429737
0.991277866823
0.993716384605
0.794691740167
0.770189435744
0.992305341864
0.766619056106
0.992655724585
0.996690924978
0.996843110475
0.848720871745
0.850390699721
0.996995173274
0.848074310266
0.996585829886
0.996875772615
0.997368266403
0.846907503742
0.844688000295
0.997184733631
0.996997089533
0.846226540511
0.996361638392
0.996306155586
0.84788762468
0.845537939366
0.996323946338
0.846265921776
0.996313297052
0.996462519369
0.996450886398
0.843605665003
0.844380044873
0.996564155254
0.996383352787
0.844889726403
0.997283230361
0.997540517533
0.841382117419
0.843162332326
0.997667201094
0.997147794422
0.841147974976
0.99736907257
0.99783412035
0.83938182639
0.836491150007
0.997765913733
0.997451851516
0.838637403179
0.996877779109
0.996568197528
0.841952139572
0.837445592656
0.996707512335
0.99672848905
0.839832363433
0.997049571988
0.997096526268
0.835774845061
0.834867348413
0.997220626994
0.996908443425
0.837449761571
0.997532611606
0.997856172605
0.836208713616
0.835092415902
0.997851044592
0.997521790108
0.833747687135
0.997505029369
0.997674592825
0.836485581085
0.833938503274
0.997789521573
0.997428723958
0.833633605546
0.997301617515
0.997220576503
0.834468567681
0.831727667686
0.997290501564
0.997247688129
0.833047428799
0.997284422306
0.997202399021
0.833305625443
0.831421263109
0.997237061986
0.997239020404
0.832991581962
0.997294362238
0.997547665997
0.837839482635
0.834470206545
0.997460430741
0.99734481518
0.835453659738
0.997249124664
0.997371063278
0.838265125332
0.83773181364
0.99741604406
0.997184540358
0.836563098443
0.997032423471
0.997108896182
0.833690156937
0.832181432585
0.997148879416
0.996968373172
0.834329970465
0.996884270152
0.99655074572
0.836304431597
0.832832644054
0.996696083449
0.996785738618
0.835149718063
0.996886861622
0.997305693165
0.839053776067
0.837546737241
0.997185748583
0.997069326277
0.837123776605
0.996676379791
0.996888417526
0.83694087765
0.832407061333
0.99702202372
0.996517374118
0.834888000507
0.996096772228
0.996214996933
0.836194778399
0.833299937996
0.996431305349
0.995815219813
0.835906068809
0.995800654741
0.995356355143
0.831930217603
0.831700509466
0.995729199018
0.995481364136
0.834160255916
0.996398123808
0.996790187622
0.833320949421
0.833004181928
0.996686875024
0.996460414469
0.832976239217
0.99630623996
0.996294174955
0.831415052193
0.827818242033
0.996534004847
0.996151809752
0.831192081604
0.995713697912
0.995308567858
0.832434924619
0.827968383309
0.995719899782
0.995295963003
0.83231444362
0.995696798002
0.995159468568
0.827649919256
0.826681714769
0.995610453213
0.995237642872
0.830917535267
0.995414053599
0.995973806386
0.822252963271
0.824977438024
0.99554562451
0.995857488839
0.821850478776
0.995078517597
0.995024840125
0.820948566538
0.821475569595
0.995125057378
0.995011845646
0.821244997937
0.995385689795
0.995139410997
0.825231519724
0.825066592616
0.995480109936