/*--------------------------------*- C++ -*----------------------------------*\
| =========                 |                                                 |
| \\      /  F ield         | OpenFOAM: The Open Source CFD Toolbox           |
|  \\    /   O peration     | Version:  v1906                                 |
|   \\  /    A nd           | Web:      www.OpenFOAM.com                      |
|    \\/     M anipulation  |                                                 |
\*---------------------------------------------------------------------------*/
FoamFile
{
    version     2.0;
    format      ascii;
    class       volVectorField;
    location    "15";
    object      force.turbine;
}
// * * * * * * * * * * * * * * * * * * * * * * * * * * * * * * * * * * * * * //

dimensions      [1 -2 -2 0 0 0 0];


internalField   nonuniform List<vector> 
28582
(
(0 0 0)
(0 0 0)
(0 0 0)
(0 0 0)
(0 0 0)
(0 0 0)
(0 0 0)
(0 0 0)
(0 0 0)
(0 0 0)
(0 0 0)
(0 0 0)
(0 0 0)
(0 0 0)
(0 0 0)
(0 0 0)
(0 0 0)
(0 0 0)
(0 0 0)
(0 0 0)
(0 0 0)
(0 0 0)
(0 0 0)
(0 0 0)
(0 0 0)
(0 0 0)
(0 0 0)
(0 0 0)
(0 0 0)
(0 0 0)
(0 0 0)
(0 0 0)
(0 0 0)
(0 0 0)
(0 0 0)
(0 0 0)
(0 0 0)
(0 0 0)
(0 0 0)
(0 0 0)
(0 0 0)
(0 0 0)
(0 0 0)
(0 0 0)
(0 0 0)
(0 0 0)
(0 0 0)
(0 0 0)
(0 0 0)
(0 0 0)
(0 0 0)
(0 0 0)
(0 0 0)
(0 0 0)
(0 0 0)
(0 0 0)
(0 0 0)
(0 0 0)
(0 0 0)
(0 0 0)
(0 0 0)
(0 0 0)
(0 0 0)
(0 0 0)
(0 0 0)
(0 0 0)
(0 0 0)
(0 0 0)
(0 0 0)
(0 0 0)
(0 0 0)
(0 0 0)
(0 0 0)
(0 0 0)
(0 0 0)
(0 0 0)
(0 0 0)
(0 0 0)
(0 0 0)
(0 0 0)
(0 0 0)
(0 0 0)
(0 0 0)
(0 0 0)
(0 0 0)
(0 0 0)
(0 0 0)
(0 0 0)
(0 0 0)
(0 0 0)
(0 0 0)
(0 0 0)
(0 0 0)
(0 0 0)
(0 0 0)
(0 0 0)
(0 0 0)
(0 0 0)
(0 0 0)
(0 0 0)
(0 0 0)
(0 0 0)
(0 0 0)
(0 0 0)
(0 0 0)
(0 0 0)
(0 0 0)
(0 0 0)
(0 0 0)
(0 0 0)
(0 0 0)
(0 0 0)
(0 0 0)
(0 0 0)
(0 0 0)
(0 0 0)
(0 0 0)
(0 0 0)
(0 0 0)
(0 0 0)
(0 0 0)
(0 0 0)
(0 0 0)
(0 0 0)
(0 0 0)
(0 0 0)
(0 0 0)
(0 0 0)
(0 0 0)
(0 0 0)
(0 0 0)
(0 0 0)
(0 0 0)
(0 0 0)
(0 0 0)
(0 0 0)
(0 0 0)
(0 0 0)
(0 0 0)
(0 0 0)
(0 0 0)
(0 0 0)
(0 0 0)
(0 0 0)
(0 0 0)
(0 0 0)
(0 0 0)
(0 0 0)
(0 0 0)
(0 0 0)
(0 0 0)
(0 0 0)
(0 0 0)
(0 0 0)
(0 0 0)
(0 0 0)
(0 0 0)
(0 0 0)
(0 0 0)
(0 0 0)
(0 0 0)
(0 0 0)
(0 0 0)
(0 0 0)
(0 0 0)
(0 0 0)
(0 0 0)
(0 0 0)
(0 0 0)
(0 0 0)
(0 0 0)
(0 0 0)
(0 0 0)
(0 0 0)
(0 0 0)
(0 0 0)
(0 0 0)
(0 0 0)
(0 0 0)
(0 0 0)
(0 0 0)
(0 0 0)
(0 0 0)
(0 0 0)
(0 0 0)
(0 0 0)
(0 0 0)
(0 0 0)
(0 0 0)
(0 0 0)
(0 0 0)
(0 0 0)
(0 0 0)
(0 0 0)
(0 0 0)
(0 0 0)
(0 0 0)
(0 0 0)
(0 0 0)
(0 0 0)
(0 0 0)
(0 0 0)
(0 0 0)
(0 0 0)
(0 0 0)
(0 0 0)
(0 0 0)
(0 0 0)
(0 0 0)
(0 0 0)
(0 0 0)
(0 0 0)
(0 0 0)
(0 0 0)
(0 0 0)
(0 0 0)
(0 0 0)
(-0.00302531751784 7.48587358604e-05 0)
(0 0 0)
(0 0 0)
(0 0 0)
(0 0 0)
(-2.14894786668e-05 5.04267482935e-07 0)
(0 0 0)
(-2.02445752451e-06 5.93801665268e-08 0)
(0 0 0)
(0 0 0)
(0 0 0)
(0 0 0)
(0 0 0)
(0 0 0)
(0 0 0)
(0 0 0)
(0 0 0)
(0 0 0)
(0 0 0)
(0 0 0)
(-0.0154603614444 0.000479387438014 0)
(0 0 0)
(0 0 0)
(0 0 0)
(-0.0253793800235 0.000667668274989 0)
(0 0 0)
(0 0 0)
(-0.132400572445 -0.00693876550356 0.021293697058)
(-1.17334435908 -0.077987243161 0.223994845894)
(-0.0686641021416 0.00180638150294 0)
(-0.656599608593 0.0171871638182 0)
(-0.00495415436811 9.08381003232e-05 0)
(-0.0676122009207 0.00177870860183 0)
(0 0 0)
(0 0 0)
(0 0 0)
(0 0 0)
(0 0 0)
(-0.0154599511361 0.000479374715373 0)
(0 0 0)
(0 0 0)
(0 0 0)
(-0.0247847816476 0.000652025872707 0)
(0 0 0)
(0 0 0)
(0 0 0)
(0 0 0)
(0 0 0)
(0 0 0)
(0 0 0)
(0 0 0)
(-1.99676055552e-05 4.23571560315e-07 0)
(0 0 0)
(-1.19130286757e-05 2.52710327751e-07 0)
(-0.000176494543867 4.22370036157e-06 0)
(-0.000758010731477 1.81399953248e-05 0)
(-0.000107962979455 2.58366783112e-06 0)
(-0.00045627269763 1.09190863113e-05 0)
(0 0 0)
(0 0 0)
(-0.000307132989567 6.01232628354e-06 0)
(0 0 0)
(0 0 0)
(0 0 0)
(0 0 0)
(0 0 0)
(0 0 0)
(-0.01395831676 0.000345385878088 0)
(-0.000637839600331 1.42466068163e-05 0)
(-0.00312150021326 7.72386893523e-05 0)
(-3.50890649602e-05 7.99984865402e-07 0)
(-0.000173638138028 4.15534356078e-06 0)
(-3.88557886666e-06 1.13969454711e-07 0)
(-3.90485579416e-05 8.90256135479e-07 0)
(0 0 0)
(0 0 0)
(0 0 0)
(0 0 0)
(0 0 0)
(-0.000330224162873 6.4643508882e-06 0)
(0 0 0)
(0 0 0)
(0 0 0)
(0 0 0)
(0 0 0)
(0 0 0)
(0 0 0)
(0 0 0)
(0 0 0)
(0 0 0)
(0 0 0)
(0 0 0)
(0 0 0)
(0 0 0)
(0 0 0)
(0 0 0)
(0 0 0)
(0 0 0)
(0 0 0)
(0 0 0)
(-0.00473709958262 8.30161152746e-05 0)
(0 0 0)
(0 0 0)
(0 0 0)
(0 0 0)
(0 0 0)
(-0.00393808272647 7.2207672028e-05 0)
(0 0 0)
(0 0 0)
(0 0 0)
(0 0 0)
(0 0 0)
(0 0 0)
(0 0 0)
(0 0 0)
(0 0 0)
(0 0 0)
(0 0 0)
(0 0 0)
(0 0 0)
(0 0 0)
(0 0 0)
(0 0 0)
(0 0 0)
(0 0 0)
(0 0 0)
(0 0 0)
(0 0 0)
(0 0 0)
(-0.0341805845645 0.0009529141705 0)
(-0.00747995671257 0.000167038659793 0)
(-0.0122580575667 0.000273740823148 0)
(-0.00963961753475 0.000217070878393 0)
(-0.0182959870054 0.000510070424565 0)
(0 0 0)
(0 0 0)
(0 0 0)
(0 0 0)
(0 0 0)
(0 0 0)
(0 0 0)
(0 0 0)
(0 0 0)
(0 0 0)
(-0.0043995525205 8.06690634849e-05 0)
(0 0 0)
(-0.00750360978492 0.000168970932846 0)
(0 0 0)
(0 0 0)
(-0.127449233204 0.00312392053176 0.000738156854668)
(-0.0958399634477 0.00264376008874 0)
(-0.166805669122 0.00436630836127 0)
(-0.0367254144471 0.000966154180656 0)
(-0.275790361888 0.0030071630393 0.00913774251558)
(-0.0497060307179 0.00138574520108 0)
(-0.087724079758 0.00230780204058 0)
(-0.396117367254 -0.00314934085418 0.0283218634022)
(-1.40590049371 -0.0154121778185 0.110982763505)
(-0.352129189771 0.00921734035564 0)
(-0.35107414557 0.00918972349861 0)
(-0.760899081282 -0.00842765019939 0.0598939477148)
(-0.188291959098 0.00492873389554 0)
(-0.736173943111 -0.00592208496515 0.0530146490762)
(-0.0580977559353 0.00160263550675 0)
(-0.00849822562526 0.0001913683084 0)
(-0.0173250397507 0.000455778643677 0)
(-0.017214825395 0.000452879178494 0)
(-0.0234781836981 0.000654543923944 0)
(-0.0234669658903 0.000654231184764 0)
(-0.0413553456117 0.00108795613764 0)
(-0.144036969223 0.00193556706877 0.00399170102767)
(-0.0957265962918 0.00264063283836 0)
(-0.165322524943 0.00432748555111 0)
(-0.0363040460692 0.00095506902815 0)
(-0.0496596275831 0.0013844515367 0)
(-0.0872381444755 0.00229501829364 0)
(-0.286808629245 0.00222135572545 0.0112777831651)
(0 0 0)
(0 0 0)
(0 0 0)
(0 0 0)
(0 0 0)
(0 0 0)
(0 0 0)
(0 0 0)
(0 0 0)
(0 0 0)
(0 0 0)
(0 0 0)
(0 0 0)
(0 0 0)
(0 0 0)
(0 0 0)
(0 0 0)
(0 0 0)
(0 0 0)
(0 0 0)
(0 0 0)
(0 0 0)
(0 0 0)
(-0.00433825699613 7.95451645148e-05 0)
(0 0 0)
(-0.00749558698632 0.000168790270498 0)
(0 0 0)
(0 0 0)
(0 0 0)
(-0.0341244038206 0.000951347917973 0)
(-0.0120231858295 0.000268495784746 0)
(-0.00725144787917 0.000161935714583 0)
(-0.0182676956717 0.000509281695728 0)
(0 0 0)
(-0.00961963363336 0.000216620868523 0)
(0 0 0)
(0 0 0)
(0 0 0)
(0 0 0)
(0 0 0)
(0 0 0)
(0 0 0)
(0 0 0)
(0 0 0)
(0 0 0)
(0 0 0)
(0 0 0)
(0 0 0)
(0 0 0)
(0 0 0)
(0 0 0)
(0 0 0)
(0 0 0)
(0 0 0)
(0 0 0)
(0 0 0)
(0 0 0)
(0 0 0)
(0 0 0)
(0 0 0)
(0 0 0)
(0 0 0)
(0 0 0)
(0 0 0)
(0 0 0)
(0 0 0)
(0 0 0)
(0 0 0)
(0 0 0)
(0 0 0)
(0 0 0)
(-0.0149052370504 0.000274487691194 0)
(0 0 0)
(0 0 0)
(0 0 0)
(0 0 0)
(0 0 0)
(0 0 0)
(0 0 0)
(-0.0033259963373 6.12499521112e-05 0)
(0 0 0)
(0 0 0)
(0 0 0)
(0 0 0)
(0 0 0)
(0 0 0)
(0 0 0)
(0 0 0)
(0 0 0)
(0 0 0)
(0 0 0)
(0 0 0)
(0 0 0)
(0 0 0)
(0 0 0)
(0 0 0)
(0 0 0)
(0 0 0)
(0 0 0)
(0 0 0)
(0 0 0)
(0 0 0)
(0 0 0)
(0 0 0)
(0 0 0)
(0 0 0)
(0 0 0)
(-0.319221912822 0.0080799490349 0)
(-0.00765245261148 0.000140923894212 0)
(0 0 0)
(0 0 0)
(0 0 0)
(0 0 0)
(0 0 0)
(0 0 0)
(-0.0701135909719 0.00179300508704 0)
(0 0 0)
(0 0 0)
(0 0 0)
(0 0 0)
(0 0 0)
(0 0 0)
(0 0 0)
(0 0 0)
(0 0 0)
(0 0 0)
(0 0 0)
(0 0 0)
(0 0 0)
(0 0 0)
(0 0 0)
(0 0 0)
(0 0 0)
(0 0 0)
(0 0 0)
(0 0 0)
(0 0 0)
(0 0 0)
(0 0 0)
(0 0 0)
(0 0 0)
(0 0 0)
(0 0 0)
(-1.49739157117 0.0494018699244 0)
(-0.0430650443533 0.0014099070587 0)
(0 0 0)
(0 0 0)
(0 0 0)
(0 0 0)
(0 0 0)
(0 0 0)
(-0.328453067536 0.010717539786 0)
(-0.00651152765515 0.000235637191892 0)
(0 0 0)
(0 0 0)
(0 0 0)
(0 0 0)
(0 0 0)
(0 0 0)
(0 0 0)
(0 0 0)
(0 0 0)
(0 0 0)
(0 0 0)
(0 0 0)
(0 0 0)
(0 0 0)
(0 0 0)
(0 0 0)
(0 0 0)
(0 0 0)
(0 0 0)
(0 0 0)
(0 0 0)
(0 0 0)
(0 0 0)
(0 0 0)
(0 0 0)
(0 0 0)
(0 0 0)
(0 0 0)
(0 0 0)
(0 0 0)
(0 0 0)
(0 0 0)
(0 0 0)
(-2.47504240293 0.0744592517423 0)
(-0.0747536143811 0.00224889003327 0)
(0 0 0)
(0 0 0)
(0 0 0)
(0 0 0)
(0 0 0)
(0 0 0)
(-2.47604786465 0.0744895000839 0)
(-0.552473316427 0.0166206242366 0)
(-0.0154597933394 0.000479369822489 0)
(0 0 0)
(0 0 0)
(0 0 0)
(0 0 0)
(0 0 0)
(0 0 0)
(-0.0453504842976 0.00136432536386 0)
(-0.0747710856494 0.00224941563944 0)
(-0.0154601889708 0.000479382090036 0)
(0 0 0)
(0 0 0)
(0 0 0)
(0 0 0)
(0 0 0)
(0 0 0)
(0 0 0)
(0 0 0)
(0 0 0)
(0 0 0)
(0 0 0)
(0 0 0)
(0 0 0)
(0 0 0)
(0 0 0)
(0 0 0)
(0 0 0)
(0 0 0)
(0 0 0)
(0 0 0)
(0 0 0)
(0 0 0)
(0 0 0)
(0 0 0)
(0 0 0)
(0 0 0)
(-0.0674042358895 0.00166521741417 0)
(-0.00211081790518 5.22302730479e-05 0)
(0 0 0)
(0 0 0)
(0 0 0)
(0 0 0)
(0 0 0)
(0 0 0)
(-0.0390861693092 0.000965621357885 0)
(-0.0653364531483 0.00161413297142 0)
(-0.0152046835786 0.00037622609367 0)
(-0.000376683870305 7.37382961438e-06 0)
(0 0 0)
(0 0 0)
(0 0 0)
(0 0 0)
(0 0 0)
(0 0 0)
(-0.00111638225854 2.49352017121e-05 0)
(-0.00210167994769 5.20041625844e-05 0)
(-0.000378690319251 7.41310714607e-06 0)
(0 0 0)
(0 0 0)
(0 0 0)
(0 0 0)
(0 0 0)
(0 0 0)
(0 0 0)
(0 0 0)
(0 0 0)
(0 0 0)
(0 0 0)
(0 0 0)
(0 0 0)
(0 0 0)
(0 0 0)
(0 0 0)
(0 0 0)
(0 0 0)
(0 0 0)
(0 0 0)
(0 0 0)
(0 0 0)
(0 0 0)
(0 0 0)
(0 0 0)
(0 0 0)
(-0.000165630450327 3.9896214326e-06 0)
(-0.000167182177472 4.02699864111e-06 0)
(-2.21806949862e-05 5.2048741637e-07 0)
(0 0 0)
(0 0 0)
(0 0 0)
(0 0 0)
(0 0 0)
(0 0 0)
(0 0 0)
(-2.15624279852e-05 5.05979295943e-07 0)
(-2.24587149249e-05 5.27011372435e-07 0)
(-2.05500072994e-06 6.02760413981e-08 0)
(0 0 0)
(0 0 0)
(0 0 0)
(0 0 0)
(0 0 0)
(0 0 0)
(0 0 0)
(0 0 0)
(0 0 0)
(0 0 0)
(0 0 0)
(0 0 0)
(0 0 0)
(0 0 0)
(0 0 0)
(0 0 0)
(0 0 0)
(0 0 0)
(0 0 0)
(0 0 0)
(0 0 0)
(0 0 0)
(0 0 0)
(0 0 0)
(0 0 0)
(0 0 0)
(0 0 0)
(0 0 0)
(0 0 0)
(0 0 0)
(0 0 0)
(0 0 0)
(0 0 0)
(0 0 0)
(0 0 0)
(0 0 0)
(-0.00332551259224 6.12410436943e-05 0)
(-0.00904089552505 0.000166492792473 0)
(-0.0020172966454 3.71495667446e-05 0)
(-0.0858980742782 0.00189631940923 0)
(-0.017600209032 0.000324117001654 0)
(-0.05211359922 0.00115048015356 0)
(-0.0106769448564 0.000196621491675 0)
(0 0 0)
(0 0 0)
(0 0 0)
(-0.00238266173167 4.38779548027e-05 0)
(0 0 0)
(0 0 0)
(0 0 0)
(0 0 0)
(0 0 0)
(0 0 0)
(-0.0176087657959 0.000324274578911 0)
(-0.00392906779414 7.23558265936e-05 0)
(-0.00392915438091 7.23574211339e-05 0)
(0 0 0)
(0 0 0)
(0 0 0)
(0 0 0)
(0 0 0)
(0 0 0)
(0 0 0)
(0 0 0)
(-0.0701047358522 0.00179277863629 0)
(-0.193627377223 0.00490097727281 0)
(-0.0425116762698 0.00108714517048 0)
(-0.795097028359 0.0233303716528 0)
(-0.17578176179 0.00515794785951 0)
(-0.482250678976 0.0141505843552 0)
(-0.106621120445 0.00312857360387 0)
(0 0 0)
(-0.00464070895366 8.54610686086e-05 0)
(0 0 0)
(-0.0226446991382 0.000687450221081 0)
(0 0 0)
(-0.0120905398669 0.000359361354559 0)
(0 0 0)
(-0.0147988754375 0.000370466500468 0)
(-0.0148038200818 0.000370590281837 0)
(-0.00281529939715 5.18452023895e-05 0)
(-0.175751096923 0.00515704806319 0)
(-0.0373166948791 0.00113286425172 0)
(-0.0373367799804 0.0011334739974 0)
(-0.00733265562722 0.000217945028735 0)
(0 0 0)
(0 0 0)
(0 0 0)
(-0.00332507514083 6.12329877992e-05 0)
(0 0 0)
(0 0 0)
(0 0 0)
(-0.328560942164 0.0107210597733 0)
(-0.892784868101 0.0291318860743 0)
(-0.199282869239 0.00650267052081 0)
(-2.18213456146 0.0721259379787 0)
(-0.481408730843 0.0157935069852 0)
(-1.30812360456 0.0429154229296 0)
(-0.291995761762 0.00957946295442 0)
(0 0 0)
(-0.0261200128823 0.000855143448457 0)
(0 0 0)
(-0.0651783599253 0.00213829707858 0)
(0 0 0)
(-0.0395326670125 0.00129694252016 0)
(0 0 0)
(-0.0733052198746 0.00239197525668 0)
(-0.0733359944829 0.00239297944304 0)
(-0.0139379759721 0.000500683258448 0)
(-0.481476162857 0.0157957192176 0)
(-0.107433807723 0.00352456547629 0)
(-0.107464311987 0.00352556622532 0)
(-0.023978497465 0.000786659117182 0)
(0 0 0)
(0 0 0)
(0 0 0)
(-0.0133417439024 0.000441873492288 0)
(0 0 0)
(0 0 0)
(0 0 0)
(-6.91688000964 0.212569712064 0)
(-4.10715742748 0.124166504484 0)
(-3.68087706309 0.0963507078747 0)
(-1.75206231835 0.0458620165031 0)
(-0.552287831991 0.0166150441171 0)
(-1.50146652066 0.0451701649685 0)
(-0.335024815053 0.0100788968361 0)
(-2.23399357509 0.0584770582276 0)
(-0.236106512273 0.00618032854708 0)
(-1.06173264235 0.0277919338002 0)
(-0.11208257457 0.00293387559952 0)
(0 0 0)
(-0.0453444235417 0.0013641430319 0)
(0 0 0)
(-0.0855670938342 0.00225105711342 0)
(0 0 0)
(-0.0405803304958 0.0010675674203 0)
(0 0 0)
(0 0 0)
(0 0 0)
(0 0 0)
(0 0 0)
(0 0 0)
(0 0 0)
(0 0 0)
(0 0 0)
(0 0 0)
(0 0 0)
(0 0 0)
(0 0 0)
(0 0 0)
(0 0 0)
(0 0 0)
(0 0 0)
(0 0 0)
(0 0 0)
(0 0 0)
(0 0 0)
(0 0 0)
(0 0 0)
(0 0 0)
(0 0 0)
(0 0 0)
(0 0 0)
(0 0 0)
(0 0 0)
(0 0 0)
(0 0 0)
(0 0 0)
(0 0 0)
(0 0 0)
(0 0 0)
(0 0 0)
(0 0 0)
(0 0 0)
(0 0 0)
(0 0 0)
(0 0 0)
(0 0 0)
(0 0 0)
(-1.38515590217 -0.0716144529137 0.223993570029)
(-0.657364650498 0.00885452947238 0.0212931911045)
(-1.07972943525 0.0282630181929 0)
(-2.27027764669 0.0594268307745 0)
(-0.113148140565 0.00296176787522 0)
(-0.238451918964 0.00624172195715 0)
(-1.50178605889 0.0451797779664 0)
(-0.552474461406 0.0166206586822 0)
(-0.335094568844 0.0100809953112 0)
(-2.26534979141 0.0592978391414 0)
(-1.06273460442 0.0278181611783 0)
(-0.237750047124 0.00622334974655 0)
(-0.111417829438 0.00291647521832 0)
(-0.123273208011 0.00370855497971 0)
(-0.12327488636 0.00370860547122 0)
(-0.027506478129 0.00082750573369 0)
(-0.64342302054 0.0168422531993 0)
(-0.0667543351862 0.00175614029107 0)
(-0.0663770376906 0.00174621453372 0)
(-0.00479948287052 8.80020835238e-05 0)
(0 0 0)
(0 0 0)
(0 0 0)
(-0.0245684218476 0.000646333985267 0)
(0 0 0)
(0 0 0)
(0 0 0)
(0 0 0)
(0 0 0)
(0 0 0)
(0 0 0)
(0 0 0)
(0 0 0)
(0 0 0)
(0 0 0)
(0 0 0)
(0 0 0)
(0 0 0)
(0 0 0)
(0 0 0)
(0 0 0)
(0 0 0)
(0 0 0)
(0 0 0)
(0 0 0)
(0 0 0)
(0 0 0)
(0 0 0)
(0 0 0)
(0 0 0)
(0 0 0)
(0 0 0)
(0 0 0)
(0 0 0)
(0 0 0)
(0 0 0)
(0 0 0)
(0 0 0)
(0 0 0)
(0 0 0)
(0 0 0)
(0 0 0)
(0 0 0)
(0 0 0)
(0 0 0)
(0 0 0)
(0 0 0)
(0 0 0)
(0 0 0)
(-0.0747705538964 0.00224939964216 0)
(0 0 0)
(0 0 0)
(-0.0408174898686 0.0010738064927 0)
(-0.0860781527752 0.00226450180124 0)
(0 0 0)
(0 0 0)
(-0.0453511453963 0.00136434525238 0)
(0 0 0)
(0 0 0)
(-0.08583069023 0.00225799167804 0)
(-0.0402916093287 0.00105997188553 0)
(0 0 0)
(0 0 0)
(0 0 0)
(0 0 0)
(0 0 0)
(-0.0244030190123 0.000641982648645 0)
(0 0 0)
(0 0 0)
(0 0 0)
(0 0 0)
(0 0 0)
(0 0 0)
(0 0 0)
(0 0 0)
(0 0 0)
(0 0 0)
(0 0 0)
(0 0 0)
(0 0 0)
(0 0 0)
(0 0 0)
(0 0 0)
(0 0 0)
(0 0 0)
(0 0 0)
(0 0 0)
(0 0 0)
(0 0 0)
(0 0 0)
(0 0 0)
(0 0 0)
(0 0 0)
(0 0 0)
(0 0 0)
(0 0 0)
(0 0 0)
(0 0 0)
(0 0 0)
(0 0 0)
(0 0 0)
(0 0 0)
(0 0 0)
(0 0 0)
(0 0 0)
(0 0 0)
(0 0 0)
(0 0 0)
(0 0 0)
(0 0 0)
(0 0 0)
(0 0 0)
(0 0 0)
(0 0 0)
(0 0 0)
(0 0 0)
(0 0 0)
(0 0 0)
(0 0 0)
(0 0 0)
(0 0 0)
(0 0 0)
(0 0 0)
(0 0 0)
(0 0 0)
(0 0 0)
(0 0 0)
(0 0 0)
(0 0 0)
(0 0 0)
(0 0 0)
(0 0 0)
(0 0 0)
(0 0 0)
(0 0 0)
(0 0 0)
(0 0 0)
(0 0 0)
(0 0 0)
(0 0 0)
(0 0 0)
(0 0 0)
(0 0 0)
(0 0 0)
(0 0 0)
(0 0 0)
(0 0 0)
(0 0 0)
(0 0 0)
(0 0 0)
(0 0 0)
(0 0 0)
(0 0 0)
(0 0 0)
(0 0 0)
(0 0 0)
(0 0 0)
(0 0 0)
(0 0 0)
(0 0 0)
(0 0 0)
(0 0 0)
(0 0 0)
(0 0 0)
(0 0 0)
(0 0 0)
(0 0 0)
(0 0 0)
(0 0 0)
(0 0 0)
(0 0 0)
(0 0 0)
(0 0 0)
(0 0 0)
(0 0 0)
(0 0 0)
(0 0 0)
(0 0 0)
(0 0 0)
(0 0 0)
(0 0 0)
(0 0 0)
(0 0 0)
(0 0 0)
(0 0 0)
(0 0 0)
(0 0 0)
(0 0 0)
(0 0 0)
(0 0 0)
(0 0 0)
(0 0 0)
(0 0 0)
(0 0 0)
(0 0 0)
(0 0 0)
(0 0 0)
(0 0 0)
(0 0 0)
(0 0 0)
(0 0 0)
(0 0 0)
(0 0 0)
(0 0 0)
(0 0 0)
(0 0 0)
(0 0 0)
(0 0 0)
(0 0 0)
(0 0 0)
(0 0 0)
(0 0 0)
(0 0 0)
(0 0 0)
(0 0 0)
(0 0 0)
(0 0 0)
(0 0 0)
(0 0 0)
(0 0 0)
(0 0 0)
(0 0 0)
(0 0 0)
(0 0 0)
(0 0 0)
(0 0 0)
(0 0 0)
(0 0 0)
(0 0 0)
(0 0 0)
(0 0 0)
(0 0 0)
(0 0 0)
(0 0 0)
(0 0 0)
(0 0 0)
(0 0 0)
(0 0 0)
(0 0 0)
(0 0 0)
(-0.00162015160901 3.87583722738e-05 0)
(-0.00259803779242 6.21520327976e-05 0)
(-0.000995312454168 2.38188755325e-05 0)
(-0.00162133245489 3.87866212747e-05 0)
(-0.180677639927 0.00446362974651 0)
(-0.107969073126 0.00266736917031 0)
(-0.00294373763552 7.04221003268e-05 0)
(-0.00173703461351 4.15545272606e-05 0)
(-0.00193857889599 4.63760071066e-05 0)
(-0.00123868936787 2.96431414609e-05 0)
(-0.0153013123215 0.000378617084202 0)
(-0.040292076361 0.00099541321586 0)
(-0.00922259126177 0.000228204649311 0)
(-0.000701534306297 1.67884549756e-05 0)
(-0.000163817198281 3.92031812684e-06 0)
(-0.000581964944406 1.39270341861e-05 0)
(-0.00012239863513 2.92912827857e-06 0)
(0 0 0)
(-0.00121515323532 2.71413226087e-05 0)
(0 0 0)
(-1.96134287782e-05 4.16058430629e-07 0)
(0 0 0)
(-1.08247412758e-05 2.29624555609e-07 0)
(0 0 0)
(0 0 0)
(0 0 0)
(0 0 0)
(0 0 0)
(0 0 0)
(0 0 0)
(0 0 0)
(0 0 0)
(0 0 0)
(0 0 0)
(0 0 0)
(0 0 0)
(0 0 0)
(0 0 0)
(0 0 0)
(0 0 0)
(0 0 0)
(0 0 0)
(0 0 0)
(0 0 0)
(0 0 0)
(0 0 0)
(0 0 0)
(0 0 0)
(0 0 0)
(0 0 0)
(0 0 0)
(0 0 0)
(0 0 0)
(0 0 0)
(0 0 0)
(0 0 0)
(0 0 0)
(0 0 0)
(0 0 0)
(0 0 0)
(0 0 0)
(0 0 0)
(0 0 0)
(0 0 0)
(0 0 0)
(0 0 0)
(-0.0650590191367 0.00160727898159 0)
(-0.00873999361092 0.000216263208501 0)
(-0.0146922985688 0.000363547591702 0)
(-0.000504412519515 1.20711229615e-05 0)
(-0.000874357987284 2.09243077214e-05 0)
(-0.000126213090108 3.02041220448e-06 0)
(-0.000195302483602 4.67379417249e-06 0)
(-0.040027107716 0.000988867182127 0)
(-0.0149408381426 0.000369697477854 0)
(-0.00925963064995 0.00022912115535 0)
(-0.00103176829276 2.46913021542e-05 0)
(-0.00060840908909 1.45598704258e-05 0)
(-0.000193268736249 4.62512445591e-06 0)
(-0.000110713893409 2.64950009998e-06 0)
(-0.00351715460851 8.70287982222e-05 0)
(-0.00350400118784 8.67033287674e-05 0)
(-0.000755607241644 1.6877031896e-05 0)
(-0.000190872785302 4.56778682575e-06 0)
(-3.48397416772e-05 7.94300620089e-07 0)
(-3.51116644658e-05 8.00500104621e-07 0)
(-3.76251976089e-06 1.10359959276e-07 0)
(0 0 0)
(0 0 0)
(0 0 0)
(0 0 0)
(0 0 0)
(0 0 0)
(0 0 0)
(0 0 0)
(0 0 0)
(0 0 0)
(0 0 0)
(0 0 0)
(0 0 0)
(0 0 0)
(0 0 0)
(0 0 0)
(0 0 0)
(0 0 0)
(0 0 0)
(0 0 0)
(0 0 0)
(0 0 0)
(0 0 0)
(0 0 0)
(0 0 0)
(0 0 0)
(0 0 0)
(0 0 0)
(0 0 0)
(0 0 0)
(0 0 0)
(0 0 0)
(0 0 0)
(0 0 0)
(0 0 0)
(0 0 0)
(0 0 0)
(0 0 0)
(0 0 0)
(0 0 0)
(0 0 0)
(0 0 0)
(0 0 0)
(0 0 0)
(0 0 0)
(0 0 0)
(0 0 0)
(0 0 0)
(0 0 0)
(-0.00202788552156 5.0178186494e-05 0)
(0 0 0)
(0 0 0)
(-1.62324914359e-05 3.44338819509e-07 0)
(-1.93497597342e-05 4.10465235789e-07 0)
(0 0 0)
(0 0 0)
(-0.0012287769736 2.74456186145e-05 0)
(0 0 0)
(0 0 0)
(-1.61869712071e-05 3.43373201761e-07 0)
(-9.88670137956e-06 2.09725974311e-07 0)
(0 0 0)
(0 0 0)
(0 0 0)
(0 0 0)
(0 0 0)
(0 0 0)
(0 0 0)
(0 0 0)
(0 0 0)
(0 0 0)
(0 0 0)
(0 0 0)
(0 0 0)
(0 0 0)
(0 0 0)
(0 0 0)
(0 0 0)
(0 0 0)
(0 0 0)
(0 0 0)
(0 0 0)
(0 0 0)
(0 0 0)
(0 0 0)
(0 0 0)
(0 0 0)
(0 0 0)
(0 0 0)
(0 0 0)
(0 0 0)
(0 0 0)
(0 0 0)
(0 0 0)
(0 0 0)
(0 0 0)
(0 0 0)
(0 0 0)
(0 0 0)
(0 0 0)
(0 0 0)
(0 0 0)
(0 0 0)
(0 0 0)
(0 0 0)
(0 0 0)
(0 0 0)
(0 0 0)
(0 0 0)
(0 0 0)
(0 0 0)
(0 0 0)
(0 0 0)
(0 0 0)
(0 0 0)
(0 0 0)
(0 0 0)
(0 0 0)
(0 0 0)
(0 0 0)
(0 0 0)
(0 0 0)
(0 0 0)
(0 0 0)
(0 0 0)
(0 0 0)
(0 0 0)
(0 0 0)
(0 0 0)
(0 0 0)
(0 0 0)
(0 0 0)
(0 0 0)
(0 0 0)
(0 0 0)
(0 0 0)
(0 0 0)
(0 0 0)
(0 0 0)
(0 0 0)
(0 0 0)
(0 0 0)
(0 0 0)
(0 0 0)
(0 0 0)
(0 0 0)
(0 0 0)
(0 0 0)
(0 0 0)
(0 0 0)
(0 0 0)
(0 0 0)
(0 0 0)
(0 0 0)
(0 0 0)
(0 0 0)
(0 0 0)
(0 0 0)
(0 0 0)
(0 0 0)
(0 0 0)
(0 0 0)
(0 0 0)
(0 0 0)
(0 0 0)
(0 0 0)
(0 0 0)
(0 0 0)
(0 0 0)
(0 0 0)
(0 0 0)
(0 0 0)
(0 0 0)
(0 0 0)
(0 0 0)
(0 0 0)
(0 0 0)
(0 0 0)
(0 0 0)
(0 0 0)
(0 0 0)
(0 0 0)
(0 0 0)
(0 0 0)
(0 0 0)
(0 0 0)
(0 0 0)
(0 0 0)
(0 0 0)
(0 0 0)
(0 0 0)
(0 0 0)
(0 0 0)
(0 0 0)
(0 0 0)
(0 0 0)
(0 0 0)
(0 0 0)
(0 0 0)
(0 0 0)
(0 0 0)
(0 0 0)
(0 0 0)
(0 0 0)
(0 0 0)
(0 0 0)
(0 0 0)
(0 0 0)
(0 0 0)
(0 0 0)
(0 0 0)
(0 0 0)
(0 0 0)
(0 0 0)
(0 0 0)
(0 0 0)
(0 0 0)
(0 0 0)
(0 0 0)
(0 0 0)
(0 0 0)
(0 0 0)
(0 0 0)
(0 0 0)
(0 0 0)
(0 0 0)
(0 0 0)
(0 0 0)
(0 0 0)
(0 0 0)
(0 0 0)
(0 0 0)
(0 0 0)
(0 0 0)
(0 0 0)
(0 0 0)
(0 0 0)
(0 0 0)
(0 0 0)
(0 0 0)
(0 0 0)
(0 0 0)
(0 0 0)
(0 0 0)
(0 0 0)
(-6.74460654443 0.186483362139 0)
(-5.24004200316 0.144547362217 0)
(-5.35325413716 0.140126881911 0)
(-3.25867781289 0.0852992122872 0)
(-4.6244764527 0.12756689211 0)
(-4.73953886958 0.124062259417 0)
(-7.65056935332 0.211754913864 0)
(-5.23807239231 0.144493030199 0)
(-2.47397266128 0.0682449152445 0)
(-2.54502575668 0.066618642517 0)
(-2.55355602387 0.0668419309529 0)
(-3.60050813513 0.0993205690446 0)
(-3.59936843191 0.0992891301566 0)
(-3.70236089005 0.0969130689369 0)
(-1.5013508764 0.0414149941573 0)
(-3.17849236242 0.0876791992384 0)
(-1.19643499647 0.0313179051786 0)
(-1.97906174506 0.0518039578056 0)
(-2.80494137584 0.0773747379897 0)
(-1.06069717798 0.0277648294651 0)
(-1.70133349995 0.0469315454952 0)
(-0.709121556256 0.019561226873 0)
(-0.334948792507 0.00923961380564 0)
(-0.565680415791 0.0148072613016 0)
(-0.209253170658 0.00547741496722 0)
(-0.295549706354 0.00815278397225 0)
(-0.501547661922 0.013128521119 0)
(-0.80361676737 0.0221678917624 0)
(-1.16893217072 0.0322451731848 0)
(-1.50055658488 0.041393083504 0)
(-1.54480753691 0.04043691141 0)
(-0.568418368916 0.0148789300146 0)
(-2.18389930721 0.0602431972899 0)
(-0.803182451802 0.0221559111008 0)
(-0.827736644957 0.0216668501307 0)
(-0.55211280686 0.0152301164436 0)
(-0.158118364145 0.00436171932235 0)
(-0.163243696264 0.00427307009214 0)
(-0.268642874946 0.00703200099402 0)
(-0.230113240196 0.00634770901862 0)
(-0.379366520659 0.0104648836481 0)
(-0.391357321576 0.0102441766784 0)
(-0.0341855391119 0.000953052297408 0)
(-0.123193039155 0.00339829887671 0)
(-0.0278421445347 0.000732457475174 0)
(-0.0757846164994 0.00199370450034 0)
(-0.108699197956 0.00299848404462 0)
(-0.0246330351049 0.000648033799131 0)
(-0.0387446449894 0.00108015476364 0)
(-0.0085020924052 0.000191455382946 0)
(0 0 0)
(-0.00721457625043 0.000161112315773 0)
(0 0 0)
(0 0 0)
(-0.00485038217135 8.89353600129e-05 0)
(-0.00963601309488 0.000216989711383 0)
(-0.0266202980113 0.00074214234546 0)
(-0.0581585327709 0.00160431204509 0)
(-0.0590748546802 0.00155411228655 0)
(-0.0119002268321 0.000265749925789 0)
(-0.0846352639701 0.00233467673542 0)
(-0.0182934382961 0.000509999369574 0)
(-0.0191829709047 0.000504656184715 0)
(-0.00473286672896 8.29419359036e-05 0)
(0 0 0)
(0 0 0)
(0 0 0)
(0 0 0)
(0 0 0)
(-0.00377538589508 6.9224504772e-05 0)
(0 0 0)
(0 0 0)
(0 0 0)
(0 0 0)
(0 0 0)
(0 0 0)
(0 0 0)
(0 0 0)
(0 0 0)
(0 0 0)
(0 0 0)
(0 0 0)
(0 0 0)
(0 0 0)
(0 0 0)
(0 0 0)
(0 0 0)
(0 0 0)
(0 0 0)
(0 0 0)
(0 0 0)
(0 0 0)
(0 0 0)
(0 0 0)
(0 0 0)
(0 0 0)
(0 0 0)
(0 0 0)
(0 0 0)
(0 0 0)
(0 0 0)
(0 0 0)
(0 0 0)
(0 0 0)
(0 0 0)
(0 0 0)
(0 0 0)
(0 0 0)
(0 0 0)
(0 0 0)
(0 0 0)
(0 0 0)
(0 0 0)
(0 0 0)
(0 0 0)
(0 0 0)
(0 0 0)
(0 0 0)
(0 0 0)
(0 0 0)
(0 0 0)
(0 0 0)
(0 0 0)
(0 0 0)
(0 0 0)
(0 0 0)
(0 0 0)
(0 0 0)
(0 0 0)
(0 0 0)
(0 0 0)
(0 0 0)
(0 0 0)
(0 0 0)
(0 0 0)
(0 0 0)
(0 0 0)
(0 0 0)
(0 0 0)
(0 0 0)
(0 0 0)
(0 0 0)
(0 0 0)
(0 0 0)
(0 0 0)
(0 0 0)
(0 0 0)
(0 0 0)
(0 0 0)
(0 0 0)
(0 0 0)
(0 0 0)
(0 0 0)
(0 0 0)
(0 0 0)
(0 0 0)
(0 0 0)
(0 0 0)
(0 0 0)
(0 0 0)
(0 0 0)
(0 0 0)
(0 0 0)
(0 0 0)
(0 0 0)
(0 0 0)
(0 0 0)
(0 0 0)
(0 0 0)
(0 0 0)
(0 0 0)
(0 0 0)
(0 0 0)
(0 0 0)
(0 0 0)
(0 0 0)
(0 0 0)
(0 0 0)
(0 0 0)
(0 0 0)
(0 0 0)
(0 0 0)
(0 0 0)
(0 0 0)
(0 0 0)
(0 0 0)
(0 0 0)
(0 0 0)
(0 0 0)
(0 0 0)
(0 0 0)
(0 0 0)
(0 0 0)
(0 0 0)
(0 0 0)
(0 0 0)
(0 0 0)
(0 0 0)
(0 0 0)
(0 0 0)
(0 0 0)
(0 0 0)
(0 0 0)
(0 0 0)
(0 0 0)
(0 0 0)
(0 0 0)
(0 0 0)
(0 0 0)
(0 0 0)
(0 0 0)
(0 0 0)
(0 0 0)
(0 0 0)
(0 0 0)
(0 0 0)
(0 0 0)
(0 0 0)
(0 0 0)
(0 0 0)
(0 0 0)
(0 0 0)
(0 0 0)
(0 0 0)
(0 0 0)
(0 0 0)
(0 0 0)
(0 0 0)
(0 0 0)
(0 0 0)
(0 0 0)
(0 0 0)
(0 0 0)
(0 0 0)
(0 0 0)
(0 0 0)
(0 0 0)
(0 0 0)
(-1.30246232643 0.0218514526231 0.0283236162969)
(-1.99547337572 0.000848495384389 0.110988467155)
(-1.56649234349 0.0410045333187 0)
(-0.577412801288 0.0151143684471 0)
(-2.45478300156 0.0382930598037 0.0599048153683)
(-0.837844920959 0.0219314445552 0)
(-1.05165125888 0.00277963117217 0.0530162134622)
(-1.50270375232 0.0410605952676 0.000738028867353)
(-3.17338483664 0.0875383073566 0)
(-2.00712348399 0.0525385024164 0)
(-1.21419529127 0.0317827989923 0)
(-2.84594914005 0.0739052489602 0.00913801682925)
(-1.69795899448 0.0468384592445 0)
(-1.07347297562 0.0280992489868 0)
(-0.571984736046 0.0137409452959 0.00399096946541)
(-0.157825447331 0.00435363916713 0)
(-0.271948614656 0.00711853209941 0)
(-0.164488612651 0.0043056570471 0)
(-0.229638767274 0.0063346206103 0)
(-0.394926994699 0.0103376165098 0)
(-0.435776009325 0.0063306949788 0.0112776816314)
(-0.707435480746 0.0195147162215 0)
(-0.33416496207 0.00921799172283 0)
(-0.572811206867 0.0149939170242 0)
(-0.210918670556 0.00552101112417 0)
(-0.801711102034 0.0221153236918 0)
(-0.2948795775 0.00813429836506 0)
(-0.50627263595 0.0132522021288 0)
(-1.49887317868 0.0413466464858 0)
(-3.17393234782 0.0875534105365 0)
(-1.9940441083 0.0521961364303 0)
(-1.21200482205 0.0317254612286 0)
(-2.80134082255 0.077275416175 0)
(-1.69821539813 0.0468455321785 0)
(-1.06703823011 0.027930812966 0)
(-1.167423983 0.0322035695952 0)
(-1.49970031089 0.0413694630546 0)
(-1.54927551195 0.0405538652095 0)
(-0.567986159704 0.014867616498 0)
(-2.18190207316 0.0601881032825 0)
(-0.802424514005 0.0221350032705 0)
(-0.828532847924 0.0216876915546 0)
(-0.707729996831 0.0195228404928 0)
(-0.334204263428 0.0092190758568 0)
(-0.571689789849 0.014964562791 0)
(-0.209188559658 0.00547572370847 0)
(-0.801826313353 0.0221185018137 0)
(-0.294981617891 0.00813711316488 0)
(-0.503245767283 0.0131729707571 0)
(-0.551275565797 0.0152070210205 0)
(-0.157950524572 0.00435708944199 0)
(-0.268068190334 0.00701695803872 0)
(-0.162415243496 0.00425138449676 0)
(-0.378950722839 0.0104534138015 0)
(-0.229773350288 0.00633833310339 0)
(-0.390817624128 0.0102300495478 0)
(-0.260530169649 0.00718676468201 0)
(-0.909634301345 0.0250924016948 0)
(-0.344384840606 0.0090146241249 0)
(-0.343925654163 0.00900260445184 0)
(-0.486889655925 0.0134309258231 0)
(-0.486729161313 0.0134264985546 0)
(-0.183794056546 0.00481099671296 0)
(-0.123062338714 0.003394693485 0)
(-0.0958573211875 0.00264423890466 0)
(-0.162729677225 0.00425961512002 0)
(-0.0355963407297 0.000936451063379 0)
(-0.22997622239 0.00634392936144 0)
(-0.0497042958855 0.00138569683601 0)
(-0.0853599997943 0.00224560898505 0)
(-0.123037268958 0.00339400193194 0)
(-0.095813742746 0.00264303678667 0)
(-0.16233775766 0.00424935622602 0)
(-0.035502085372 0.000933971439683 0)
(-0.229861320847 0.00634075978476 0)
(-0.049695283488 0.00138544558106 0)
(-0.0853000502539 0.00224403186196 0)
(-0.0581176895355 0.00160318537817 0)
(-0.00849640099423 0.000191327220229 0)
(-0.016801775503 0.000442012864634 0)
(-0.0167638271307 0.000441014537479 0)
(-0.0234741398693 0.00065443118679 0)
(-0.0234741859225 0.000654432470701 0)
(-0.0402901927303 0.00105993461835 0)
(0 0 0)
(-0.0341652992628 0.000952488034412 0)
(-0.00720372986921 0.000160870099802 0)
(-0.0118292379675 0.000264164637897 0)
(-0.00963017235867 0.000216858186067 0)
(-0.0182836518955 0.000509726536328 0)
(0 0 0)
(0 0 0)
(0 0 0)
(0 0 0)
(0 0 0)
(0 0 0)
(0 0 0)
(0 0 0)
(0 0 0)
(0 0 0)
(-0.00424652898578 7.78632633087e-05 0)
(0 0 0)
(-0.0074976455463 0.000168836626427 0)
(0 0 0)
(0 0 0)
(0 0 0)
(0 0 0)
(0 0 0)
(0 0 0)
(0 0 0)
(0 0 0)
(0 0 0)
(0 0 0)
(0 0 0)
(0 0 0)
(0 0 0)
(0 0 0)
(0 0 0)
(0 0 0)
(0 0 0)
(0 0 0)
(0 0 0)
(0 0 0)
(0 0 0)
(0 0 0)
(0 0 0)
(0 0 0)
(0 0 0)
(0 0 0)
(0 0 0)
(0 0 0)
(0 0 0)
(0 0 0)
(0 0 0)
(0 0 0)
(0 0 0)
(0 0 0)
(0 0 0)
(0 0 0)
(0 0 0)
(0 0 0)
(0 0 0)
(0 0 0)
(0 0 0)
(0 0 0)
(0 0 0)
(0 0 0)
(0 0 0)
(0 0 0)
(0 0 0)
(0 0 0)
(0 0 0)
(0 0 0)
(0 0 0)
(0 0 0)
(0 0 0)
(0 0 0)
(0 0 0)
(0 0 0)
(0 0 0)
(0 0 0)
(0 0 0)
(0 0 0)
(0 0 0)
(0 0 0)
(0 0 0)
(0 0 0)
(0 0 0)
(0 0 0)
(0 0 0)
(0 0 0)
(0 0 0)
(0 0 0)
(0 0 0)
(0 0 0)
(0 0 0)
(0 0 0)
(0 0 0)
(0 0 0)
(0 0 0)
(0 0 0)
(0 0 0)
(0 0 0)
(0 0 0)
(0 0 0)
(0 0 0)
(0 0 0)
(0 0 0)
(0 0 0)
(0 0 0)
(0 0 0)
(0 0 0)
(0 0 0)
(0 0 0)
(0 0 0)
(0 0 0)
(0 0 0)
(0 0 0)
(0 0 0)
(0 0 0)
(0 0 0)
(0 0 0)
(0 0 0)
(0 0 0)
(0 0 0)
(0 0 0)
(0 0 0)
(0 0 0)
(0 0 0)
(0 0 0)
(0 0 0)
(0 0 0)
(0 0 0)
(0 0 0)
(0 0 0)
(0 0 0)
(0 0 0)
(0 0 0)
(0 0 0)
(0 0 0)
(0 0 0)
(0 0 0)
(0 0 0)
(0 0 0)
(0 0 0)
(0 0 0)
(0 0 0)
(0 0 0)
(0 0 0)
(0 0 0)
(0 0 0)
(0 0 0)
(0 0 0)
(0 0 0)
(0 0 0)
(0 0 0)
(0 0 0)
(0 0 0)
(0 0 0)
(0 0 0)
(0 0 0)
(0 0 0)
(0 0 0)
(0 0 0)
(0 0 0)
(0 0 0)
(0 0 0)
(0 0 0)
(0 0 0)
(0 0 0)
(0 0 0)
(0 0 0)
(0 0 0)
(0 0 0)
(0 0 0)
(0 0 0)
(0 0 0)
(0 0 0)
(0 0 0)
(0 0 0)
(0 0 0)
(0 0 0)
(0 0 0)
(0 0 0)
(0 0 0)
(0 0 0)
(0 0 0)
(0 0 0)
(0 0 0)
(0 0 0)
(0 0 0)
(0 0 0)
(0 0 0)
(0 0 0)
(0 0 0)
(0 0 0)
(0 0 0)
(0 0 0)
(0 0 0)
(0 0 0)
(-0.0265800065667 0.000741019067757 0)
(-0.058064688386 0.00160172333334 0)
(-0.0593702765915 0.00156188410122 0)
(-0.0119472664171 0.000266800390322 0)
(-0.0844895251574 0.00233065650792 0)
(-0.0192497857175 0.000506413916021 0)
(-0.0182664431871 0.000509246777943 0)
(-0.0341340504248 0.000951616853861 0)
(-0.122958604915 0.00339183197225 0)
(-0.0761341608053 0.00200290014041 0)
(-0.0278935125361 0.000733808839345 0)
(-0.108498250624 0.00299294088165 0)
(-0.0386859240751 0.00107851769418 0)
(-0.0246776932779 0.000649208644432 0)
(-0.00472667642184 8.28334528032e-05 0)
(0 0 0)
(0 0 0)
(0 0 0)
(0 0 0)
(-0.0037809760714 6.93270048072e-05 0)
(0 0 0)
(-0.00849281100381 0.000191246378601 0)
(0 0 0)
(-0.00720794449746 0.000160964218776 0)
(0 0 0)
(-0.00962591949987 0.000216762417558 0)
(0 0 0)
(-0.00484831107747 8.88973849682e-05 0)
(-0.0341523323339 0.00095212653181 0)
(-0.12297602993 0.00339231264396 0)
(-0.075552528681 0.00198759884791 0)
(-0.0278154122522 0.000731754215402 0)
(-0.108543558547 0.00299419070764 0)
(-0.0386932327659 0.00107872145181 0)
(-0.0244896757126 0.000644262370591 0)
(-0.026602058111 0.000741633838667 0)
(-0.0581177730909 0.00160318768306 0)
(-0.0587032918878 0.00154433739495 0)
(-0.0118009348364 0.000263532586502 0)
(-0.0845472869923 0.00233224987699 0)
(-0.0182859946771 0.000509791850301 0)
(-0.0190364712388 0.000500802143399 0)