/*--------------------------------*- C++ -*----------------------------------*\
| =========                 |                                                 |
| \\      /  F ield         | OpenFOAM: The Open Source CFD Toolbox           |
|  \\    /   O peration     | Version:  v1906                                 |
|   \\  /    A nd           | Web:      www.OpenFOAM.com                      |
|    \\/     M anipulation  |                                                 |
\*---------------------------------------------------------------------------*/
FoamFile
{
    version     2.0;
    format      ascii;
    class       volScalarField;
    location    "15";
    object      p;
}
// * * * * * * * * * * * * * * * * * * * * * * * * * * * * * * * * * * * * * //

dimensions      [1 -1 -2 0 0 0 0];


internalField   nonuniform List<scalar> 
28582
(
17063.4414611
17063.322531
12165.343294
12165.2146148
7266.84646507
7266.70863992
3593.0508184
3593.01990484
45.8046925398
49.8638023242
-27.041333203
3592.86774312
628.730840824
632.160275633
3593.26687195
3593.17565366
633.22406812
1757.91806611
1757.9401151
17063.3706115
17063.9059914
17065.3278531
12165.3020851
12165.968294
12167.4609574
7266.9537378
7267.26462603
3592.93993382
3593.67505595
51.7142512727
-27.0520911407
-27.0081078767
3591.74621922
3592.7677861
632.944714316
633.35803514
1755.82016002
3594.30269279
3593.95639825
3594.92594239
1758.21584928
638.719770713
1758.50636469
1760.35613716
46.6055697042
48.386855516
-23.0132755441
-22.9800435788
47.9404408068
-22.9935101151
1755.80819007
1756.77490498
629.678353136
627.851657283
1756.40209578
628.623334867
1756.41067395
1757.23373365
1757.7322651
630.987915923
630.923056055
1757.72354417
629.763712675
1757.09192703
1757.95020201
1758.01312283
634.058022736
631.96781247
1757.94078864
632.841599285
1758.03529942
1757.9120651
635.100991647
634.32487571
1757.89500533
634.603946643
633.571766035
1757.9635908
1757.61864566
633.575848182
632.743764895
1757.66690872
631.485721342
1757.0308704
632.573374559
47.7762492381
-22.9802918862
49.1044559532
50.9114569323
-22.9665191115
-22.9487948089
50.3556384191
-23.0225614049
-22.9877959528
52.1125658178
-23.0554855746
53.2727369391
-23.0114857618
1756.02273873
1757.17538118
633.022394067
632.099197932
1755.82861744
1757.49865499
631.993606072
1754.69789808
1753.79958818
632.97492776
631.952942968
1754.57906837
1754.00850648
631.705742244
629.403834396
629.451201856
1755.17637702
1755.16637133
630.619576034
1754.50880019
630.457433589
1758.04616542
635.741347245
635.185622724
1758.77630083
636.648972211
1758.45773996
636.293651579
1759.34410015
1759.22493442
637.745320572
638.828642512
1758.89527047
1759.91684753
637.59190601
1759.38910793
1758.42048668
634.795139824
634.24749494
635.761154047
1759.23100169
636.12644402
637.364456047
638.926030803
1761.26225581
1759.96472431
638.953782381
1760.64962615
637.55154527
7268.10157344
3594.89382103
54.5308496043
-27.0222199901
3592.25055257
629.945831203
3595.8141583
3596.45839805
639.513451785
640.354104653
642.61324239
3596.82944976
3597.29695454
642.876819899
643.890882854
48.819190671
53.6505919825
54.920775252
-23.0322004134
-23.0607547284
-23.0720861062
56.1506596802
56.8641698965
1755.47450034
1755.26451836
631.263389733
631.063930419
1754.69214745
632.503841721
1755.99752001
1760.7416359
1759.54323589
640.175824927
639.884001102
1759.7911204
1760.43579922
640.691379949
1761.78099074
1762.00076595
640.137110094
641.388842955
1761.32915958
641.064248519
1762.57669429
1761.99756675
1762.85525176
642.149009636
642.157709155
1761.91094341
641.743290188
1762.88609354
1761.70186912
1762.6711123
642.427079857
643.139450208
1761.76427109
642.721463293
1762.47488482
1761.85133222
1762.81449776
643.454909294
643.452038396
1762.17101645
643.043183409
1762.52134822
3612.88143789
3606.62201004
3599.15933012
3596.44817721
35.9791191711
39.5089169078
36.9054725539
40.1444520137
40.8294759151
-27.1478038764
-27.040758041
-27.0162288915
-27.1011145971
-27.1396706194
-27.1220341418
3619.31930346
3617.47885498
631.157737268
630.947535912
3616.28259446
630.089450343
3614.97580413
3612.45158534
630.584174786
630.1048432
3610.53819095
3609.6301688
3606.21986552
629.800207604
627.382971868
629.267136073
626.445257919
3602.5608035
3598.98256641
626.762903525
627.751890711
625.399331731
625.129886917
3602.80445243
3600.50713008
629.045910498
626.184212841
625.294566684
3596.01946952
3597.22706185
3594.61872787
625.17000406
624.507753795
624.667814826
624.64106115
624.663436181
625.442679648
33.7370468567
34.6697238928
35.57159581
-23.0206060562
-22.9563546111
-22.9926659889
-22.9445753332
-22.8851408491
-22.9036593486
-22.8700586072
-22.8668608705
35.1267584506
35.4825452392
37.5090461357
36.3399556671
37.743220242
-22.980862105
-22.9562232148
-23.0012041831
-22.9816242259
41.5651688866
39.7441393201
41.8163149118
-22.8962708177
-22.7958112678
-22.9104571445
-22.79692626
38.2053199451
38.7454845454
-23.0153597746
-22.9866604271
-22.9788697725
42.246311905
40.5305473869
42.6377132494
-22.9321335555
-22.8639172592
-22.9180656728
-22.8619237085
1784.10591607
1783.62567126
631.681309178
631.423005173
1782.74830902
632.07635625
1784.70817476
1783.21351791
1780.59621434
631.295149118
631.520961988
1781.72234842
1782.14325242
631.848903641
1777.87569306
1778.74673407
630.419750868
629.154908041
1779.96446639
1776.48490644
629.434966228
1780.02390955
1779.50965921
631.161746435
630.219234164
1781.04945267
1778.44796416
630.892405154
1779.20260313
1776.53011372
630.172511502
630.926150803
1777.52964846
1778.29812025
630.914911702
1774.3470216
1777.59441523
628.987538484
629.472773431
1775.32971812
1776.560835
628.744645373
1771.95375562
1770.62083136
628.061809018
627.049513531
1773.16347583
1769.15887433
627.875013586
1773.24675805
1774.47092835
629.371280233
628.49385736
1775.55379391
1772.0834159
628.622878613
1770.61388871
1766.28958255
626.710862889
627.468764929
1767.66831527
1769.33906302
627.657241627
1765.15565199
1768.64116304
626.808336176
626.28243615
1767.30111867
1766.86787734
626.177058592
1764.08675658
1764.70711355
627.20874866
627.017165954
1766.16118784
626.428267952
1762.80376059
1762.86391629
1763.51430227
625.803033167
624.903898517
1765.09459508
1760.9617053
625.450534906
1761.46947338
1758.4538981
626.044445438
624.660637377
1759.3116731
625.443960419
1760.47336099
1769.29402732
1773.20073482
628.226838121
628.674763674
1770.73509532
1771.7881939
627.843285649
1766.5466921
1764.87164824
627.185101697
625.899110132
1767.96568067
1763.49929907
626.825839536
1765.19496797
1761.39931803
625.575390177
625.906581732
1762.34968554
1763.97254104
626.356468833
1758.1110698
1761.97522586
624.569759372
624.94397796
1759.33813391
1760.67916578
624.345445687
1756.2931816
1756.76271112
624.110756997
624.164088859
1757.56894713
623.870246568
1755.56643211
1757.30203656
1759.04509713
624.766479985
624.431628989
1759.72315832
1756.92570711
624.30570898
1755.6031329
1754.91472656
624.194155009
624.310435912
1755.48407408
623.978620827
1754.93646172
1757.65676026
1758.76951115
624.724919403
624.880473844
1757.06317493
1758.84420221
625.30801521
1755.56028097
624.916376143
1755.97515173
17062.4756517
17062.3635002
17063.0843721
17067.6285267
17070.6609524
17083.556882
12164.3221767
12164.3348293
12165.2269457
12169.4990059
12172.1288313
12185.757113
18276.0341451
18281.2302514
17055.6793186
17061.3130666
17065.4848197
17068.9124115
17075.6202626
17059.949636
18278.3389292
18281.9564984
17060.2107613
17062.505424
17064.6333688
17066.3649985
17068.8277201
17083.3890084
17059.3021505
17058.9318626
17060.1445938
17061.9305178
17063.9082944
17065.4902649
17066.5700868
17082.4127332
17061.9338006
17061.0568565
17061.3591665
17062.6410644
17064.5826082
17066.7988841
17069.4941976
17084.8462677
17064.6649228
17066.8223307
17069.5072632
17083.8614611
13376.7194776
13381.7206432
12161.6329898
12165.4409773
12170.3803261
12176.653443
12241.2461482
12052.0654667
13380.3059267
13383.9100576
12165.233919
12166.9488869
12167.8576293
12169.7329455
12175.4416798
12185.7415261
12160.4451262
12161.495328
12163.3595861
12164.7458406
12166.0518723
12166.9935906
12167.0693185
12177.1593681
12163.6732256
12162.993136
12163.6430548
12165.0451183
12166.8223774
12168.5175318
12170.61321
12187.5761445
12166.7765212
12168.4840983
12170.375708
12185.6882285
8477.9104466
8483.27237348
7265.18509975
7266.40352018
7265.11926676
7259.5439549
7247.85784803
7190.428755
8482.18621443
8486.93264384
7263.28310125
7264.87893876
7264.76606791
7261.68493912
7253.04468392
7248.96394038
7262.12810921
7263.17571261
7264.19552593
7264.41836787
7264.49676638
7262.85431065
7255.45172684
7276.61941554
7266.74476487
7265.17188394
7264.18189048
7264.50666687
7264.93784744
7265.73074598
7266.00095358
7263.03727944
7283.24209061
7265.62843048
7265.64822506
7266.04103336
7266.78184675
7267.7167752
7266.78671443
7284.39778855
7269.29936532
7268.8158464
7284.69661997
3583.00024302
3588.64686377
3593.80688905
3594.67092279
3593.70696073
3593.03857104
3593.51899788
3573.93894881
3583.63548186
3585.08961176
3590.04784381
3593.04156649
3593.35747671
3592.23820359
3591.05494867
3589.32809052
3580.99268761
3593.40813933
3589.27904423
3587.59971155
3589.62129863
3591.67465708
3591.66007727
3591.78733176
3591.80176421
3590.49297113
3594.14951407
3592.49912285
3590.97911549
3589.77565522
3590.36408665
3591.15833011
3592.36654425
3593.25116354
3593.52896883
3599.00599192
3591.26469697
3591.83760051
3592.38602083
3593.27460726
3594.17936376
3595.47735167
3599.61536154
3595.77776961
3597.090585
3601.0869687
45.7385561486
48.8080184471
50.9896401461
54.0777506295
57.3845381092
61.5246210792
62.1933023494
61.7879558097
43.2336391593
45.0296848646
47.1723037326
50.4336122994
52.8536554097
55.346686127
58.3281758172
58.9950775796
59.1721742182
57.8849102661
44.5102286206
47.771520914
51.0123018855
54.0995568544
56.7122547198
58.3493649406
57.6807547501
55.7498642385
56.5729498261
56.0039763899
48.1110202162
52.3185738867
56.5270988066
58.9331697606
58.9332385907
55.9363641717
54.8076730355
55.8012382345
55.3004946638
52.3268199978
54.2367201024
54.8963254345
55.548007906
55.8285320998
56.1508577587
56.0534562852
56.339423209
56.6392817766
55.336604318
-27.0344100514
-27.0716847729
-27.1650315332
-27.0843129676
-27.008229645
-27.0040181239
-27.0134920241
-27.0161289383
-27.0959111909
-27.2990363225
-27.1222504546
-27.2966332399
-27.1539640232
-27.1468870298
-26.9873921222
-27.184720474
-27.0215684911
-27.0674023131
-27.0909503405
-27.2793460771
-27.413989407
-27.0395760838
-27.1205950656
-27.0375203081
-27.0083097471
-27.0405694424
-27.0923253663
-27.0295803097
-27.1227153178
-27.2947543187
-27.0621465004
-27.0774589925
-27.030249516
-27.0032608621
-27.0234350749
-27.0191072828
-27.0400596281
-27.1125822323
-27.3129822021
-27.0638609197
-27.0107465567
-27.1644284249
-27.0300750341
-27.0634976401
-27.1211480803
-27.3524236419
-27.0512118043
-27.125542836
-27.319856315
18278.7968482
18276.5225719
18279.1004411
15826.4978662
15829.6023651
15827.2196209
15829.6868577
18282.8309868
18281.6495735
18283.3676427
15832.2617927
15829.9886798
15831.9848306
15831.9915049
18279.8783422
18280.7480762
18281.1114604
15829.1759392
15831.0608615
15831.3496637
15832.3457288
18283.3411638
18282.2878322
18283.7012945
15832.988964
15833.8180228
15833.9111044
15835.5235961
13379.5040437
13377.9440999
13380.3325213
10926.939428
10929.8681431
10928.4744022
10931.2079793
13383.3601173
13382.119824
13384.1101106
10932.1366734
10933.8165126
10933.0579202
10933.9285822
13382.1528639
13382.0850775
13383.3828461
10931.0555039
10933.4535165
10932.8389241
10933.9880596
13384.9998184
13384.9379463
13389.1307959
10935.1690452
10932.6466262
10935.098656
10938.7800196
8481.04084583
8479.71642888
8482.45236319
6030.16918757
6032.99486546
6031.98870949
6034.27731583
8485.16567831
8484.72394404
8486.46051661
6035.52639709
6037.84838103
6036.35806163
6040.06806731
8484.75100732
8483.60157951
8485.03557292
6033.57070339
6035.87034583
6034.4131464
6036.25549323
8484.5232251
8486.32565486
8489.10515493
6037.99836728
6038.93868704
6038.05495416
6040.99460752
3580.05007247
3582.31276602
620.70232867
622.608456685
3585.79256016
3584.76455349
3587.10445138
622.316308764
628.021540195
623.896265345
630.367261723
3591.52934604
3589.48662194
3592.01052151
630.046131958
636.602651208
632.431579281
637.648412009
3594.72001993
3593.62746605
3594.02720564
638.381527934
639.857070973
638.957450212
639.678956513
3594.13726728
3593.82831889
3593.21680138
639.841713455
640.650262349
639.212958038
640.331981604
3592.92959041
3592.59354328
3591.93024617
641.358484271
644.154046839
641.159163714
643.057442233
3594.1850848
3591.81764524
3592.73575838
645.007234493
647.78583083
643.270139493
643.771327905
3586.71895499
3592.36527997
3586.25961052
648.12201463
647.15092367
643.680946169
643.031726848
3566.60506842
3575.55615087
3584.42198586
650.577337765
600.425939002
645.288020252
607.827105807
3594.68132411
3590.05741063
627.884195246
625.496220218
626.192824098
627.860702656
3583.14565303
3586.96925201
3585.32575289
624.67061405
623.711048325
627.809234178
628.275745063
3587.62402864
3585.80255401
3587.6854078
625.046969981
631.454008481
629.276247174
633.67875436
3592.06945061
3589.92467896
3591.86094824
633.305804667
638.172752882
635.408273395
640.120809346
3593.39621164
3592.9883193
3593.50564363
639.588695463
640.080032559
641.277521368
642.01862382
3592.80512181
3593.19591679
3592.66402708
639.579205631
641.03434471
641.769296922
642.531987248
3591.70177004
3592.29351359
3591.82546183
641.51846161
642.836806519
642.713708496
642.094725423
3590.53472767
3591.34853246
3591.09087154
642.982538248
642.724638529
641.551133044
639.877665585
3586.14921508
3590.73703425
3590.08178329
642.545692437
641.894386689
639.581499324
640.644648573
3601.89939198
3589.81483756
3612.45394386
644.086566644
610.858290092
642.999839279
615.147714759
3591.18268184
3593.05839905
3591.94615496
625.419036075
628.297120199
625.22291389
629.038365137
3587.89769947
3590.93603205
3590.07964044
628.744223356
630.343273488
630.3454612
633.970959585
3588.37983941
3589.47117029
3589.28716115
631.185034019
634.466920413
634.987358748
636.674278471
3590.839609
3589.53065023
3590.04399051
636.04145405
640.511935273
637.315918246
640.722843338
3591.82913752
3590.64587727
3591.01689825
641.552000538
642.631533015
641.894524067
643.301327435
3591.57890869
3591.17768144
3591.52917613
642.469074414
642.68269752
643.037287999
641.066773554
3592.05935826
3592.08230541
3592.75196272
642.817710149
641.76087581
640.74177569
640.4115677
3591.12723223
3592.73838077
3592.2029001
640.94790765
639.213331486
640.093804224
639.548704486
3591.15365185
3591.94897766
3593.46098241
639.119377658
640.636846679
639.716486315
641.354156066
3616.63123641
3597.25646657
3616.28179431
643.139316786
615.484659
643.794507521
612.156755769
626.062043299
629.323475827
3591.81469117
3593.18607438
630.591644332
634.224752796
633.159663833
3590.17201173
3592.03090391
3590.96924978
635.269535514
636.73476183
633.759087506
634.65492297
3589.92406389
3590.46662164
3590.50030471
637.198133818
640.750450457
635.291256182
639.154639647
3590.85552691
3590.91849524
3591.39365113
641.845392294
643.166766693
640.056314976
640.769215767
3591.67480909
3591.65766976
3592.13274092
642.836394361
640.599417016
640.519609786
639.385180213
3593.05005057
3592.69574563
3593.23763318
640.183037046
640.319392166
639.22857679
640.255539504
3593.17854025
3593.67315455
3594.02768282
640.292664062
640.030706494
640.845444022
641.44140387
3595.24461443
3594.57598135
3596.1578934
640.069127647
641.536941678
641.550285151
642.791454645
3615.73872977
3599.4398741
3615.65403024
643.815271809
612.405232098
644.30680765
611.312415449
3591.35896619
3592.26740661
634.031365215
638.151099591
633.823595186
3592.16168932
3592.60472976
3592.87734604
638.995293054
639.493580774
634.778553103
635.91935626
3592.84636194
3593.12864619
3593.60355072
639.367981877
638.916433014
636.333062804
638.431078999
3593.63065681
3593.99305077
3594.29720886
638.902561755
640.459556681
638.88612863
640.973044639
3594.7837865
3594.85678071
3595.4514737
641.157909584
641.753025756
641.48533616
642.23462112
3596.93377309
3596.16134212
3597.61454164
641.922565708
643.183356222
642.534930722
643.368266884
3615.37120095
3600.13855083
3615.06237246
644.535933559
611.383176532
643.75523687
612.700515833
3595.33764891
641.272273264
3596.36677067
641.638179548
642.467862994
3598.53861107
642.842255961
643.452553024
3615.0309947
643.540728463
612.898405346
-22.9754690951
-22.9648332202
-22.9087172823
-22.9076583693
44.4570194869
43.947122415
-22.9520902065
-22.936445226
-22.9272379149
-22.864493897
47.398780132
45.8089639159
47.7849427553
-22.9464736556
-22.8927845084
-22.8632758844
-22.8762247215
50.0551801122
49.1444652812
50.4720290528
-22.844069339
-22.9381045078
-22.88437575
-22.9339841092
52.5650876116
51.7199337222
53.1427524356
-22.9580997271
-22.9587884998
-22.932886871
-22.9199786842
55.3724581369
54.1608217059
55.4335890199
-22.9461122692
-22.9203017885
-22.9087811588
-22.8849535028
59.9202189141
57.6137751447
59.4719088757
-22.8628206149
-22.8545009287
-22.8675549626
-22.8830740539
62.0610978237
60.2238731848
60.4518736602
-22.8740328802
-22.9107415937
-22.8960219703
-22.9306414943
61.505797915
60.7678099846
60.9198722647
-22.9617029882
-23.0285290126
-22.9774655903
-23.0360058059
71.5362702672
58.8222245193
65.2136681153
-23.1154724155
-22.9981654806
-23.1079567776
-23.0397670128
44.2077170337
44.0285525977
45.3160652591
-22.7640451675
-22.7464446909
-22.7509872279
-22.7389793336
45.566275142
46.3500622201
47.47142054
-22.8363565781
-22.8708230677
-22.8629384502
-22.9237489333
49.2447143423
48.9683208904
50.7095445673
-22.8482768194
-22.8711389371
-22.902484261
-22.9072709213
51.6525959154
52.194954895
53.4829352174
-22.8943192622
-22.9387819411
-22.9225754412
-22.9539413066
54.2738627035
54.6279701215
55.6253343019
-22.9458149148
-22.920598289
-22.9500258366
-22.9240830866
56.8525610133
56.8495484815
58.0413243116
-22.8796053661
-22.842266227
-22.8602681542
-22.8505323471
59.1475307523
58.2570365065
58.016734463
-22.8669050948
-22.907244921
-22.8606128537
-22.9001758683
58.8907811465
57.5431883246
57.405972107
-22.9311964231
-22.9603917223
-22.9363849295
-22.9765710084
59.661316958
57.6797531303
58.3653483994
-23.0108743755
-23.0671421112
-23.0321495637
-23.0839247645
65.5652875981
56.7041908284
63.6707707254
-23.1231500841
-23.0563568384
-23.1318065125
-23.0599654685
45.9400161497
44.7811830883
46.41451662
-22.8782004235
-22.96237223
-22.9153799759
-23.0352001605
49.5693541843
48.6116293705
50.6381605873
-22.9557820729
-22.9502500984
-23.0264125993
-22.9976321262
52.4440786009
52.4388599054
54.1906403618
-22.9225777562
-22.8992468352
-22.9507815262
-22.9132227643
55.5789718883
55.868616773
57.2072584743
-22.9008880451
-22.9093993743
-22.8948256804
-22.8871260498
57.5292825564
58.308135689
58.9749389196
-22.8908442929
-22.8830324505
-22.8696234169
-22.8707851491
58.6442787113
59.3040950876
58.5704250975
-22.8683860808
-22.8695692932
-22.885758032
-22.8893802859
56.3013779425
56.7769642845
55.1018825476
-22.8963587546
-22.9144942026
-22.9172676629
-22.9257364722
56.0692909166
54.6785468567
55.3145685651
-22.9372569612
-22.9964223162
-22.9582468072
-23.0230037818
57.4975557543
56.0189308499
56.9222937397
-23.0585897644
-23.1038082761
-23.0748894182
-23.1120627756
62.2009137118
55.5009333805
61.2751910967
-23.1496048961
-23.0663428506
-23.1563787629
-23.0727135206
50.0928467718
48.5099557232
-23.0321782101
-22.9890312176
-22.98105088
54.6082638141
50.9183911003
53.2761185081
-22.9243608556
-22.8780620041
-22.9236813024
-22.8850680424
58.058872036
55.151307015
56.4774161113
-22.8528435313
-22.8441210197
-22.863454226
-22.8597246842
59.3217272282
57.2623891275
57.439124739
-22.8341999423
-22.8343859654
-22.8524074656
-22.8470233081
57.5380952897
56.9598628072
56.2016817961
-22.8690588499
-22.8930166756
-22.8872541208
-22.9176654638
54.8922992786
55.6509692489
55.2836130271
-22.9347748194
-22.9673398297
-22.9671717041
-23.0049519328
55.3580468843
55.3269046816
55.6635157364
-23.0033736912
-23.0489390924
-23.0305712286
-23.0641524205
56.5482072642
55.8345669904
56.8546424633
-23.0885746548
-23.1173126949
-23.0989988614
-23.1248781926
61.1335935764
55.7104600848
61.3265576876
-23.1587997582
-23.0748698747
-23.1646017103
-23.0833077326
53.4883843815
49.9721235127
-22.9388011761
-22.9390817291
-22.9751492502
-22.9737642561
54.6732834709
51.0243300318
52.1461874892
-22.9300274411
-22.9060472641
-22.9649143767
-22.9390968885
55.2084461883
53.4027733585
54.5299756767
-22.9601562803
-22.9730697691
-22.9651694807
-22.9864844261
55.723783142
55.3479926256
55.8545460347
-22.980706614
-23.0273108364
-23.0045669073
-23.0399811358
56.0729852166
56.1653440658
56.5020161763
-23.0446599413
-23.0677986012
-23.0546318352
-23.0771702508
57.4788536341
56.4622151374
57.906448364
-23.0984828074
-23.1234814908
-23.1055567561
-23.1286770849
61.2596250285
55.7452858656
60.8155112476
-23.165093919
-23.0884666685
-23.1664481137
-23.0923372404
55.5699892244
-23.0504740581
56.8398478222
-23.0666848158
-23.0890052874
-23.0847786196
-23.101111795
58.0570756177
-23.1149218145
-23.1361268099
-23.1220874144
-23.1421715877
60.1135930452
-23.1656851367
-23.0920423394
-23.1674632523
-23.0943868466
1743.80357186
1743.41839608
619.308067148
620.969950621
1744.51529918
619.808750425
1742.55905832
1745.04862946
1747.03310391
621.506227099
622.055380292
1745.75814344
1746.55086568
620.654699611
1748.18016137
1745.03074593
624.037879935
622.479246325
1746.1787726
624.294225819
1746.94303242
1750.28623465
1751.31062904
626.061771645
628.48384513
1752.40379333
626.440254579
1749.08987722
1749.29829721
1748.29708533
622.959036284
625.928060906
1747.33218798
1750.05183879
624.949384056
1751.40740472
1754.1380681
629.369849273
628.290882994
1753.49096918
1752.11615208
627.273703948
1756.62313983
1753.55225279
632.146715499
630.645151026
1754.50931916
632.711328167
1755.88338322
1758.24980235
1759.19710184
634.470416654
636.976540768
1759.39827274
634.869252046
1757.81157193
1757.20415396
1755.94164612
631.580972839
634.090912211
1755.41943238
1757.60732616
633.429851729
1758.58325719
1759.75312542
637.207111041
635.817627028
1759.58857272
1758.92601631
635.222171054
1761.5653555
1760.52258911
639.153756254
638.597048991
1760.65095813
639.383048639
1761.43700619
1761.51642684
1761.06958609
639.767099237
639.847359378
1760.83982849
639.927268546
1761.51216367
1761.34554277
1760.37844563
638.662688798
639.642734548
1760.52992654
1760.93113071
639.405982597
1761.25323197
1760.05580654
639.616974664
640.047505975
1760.44254396
1760.79089176
639.863585908
1758.99988888
1760.28177413
639.896261162
639.558945291
1759.90616312
639.416373884
1759.36104398
1758.35768194
1758.11363541
639.976073388
640.125716193
1757.91016536
639.511502024
1758.61618935
1758.8670808
1759.37220045
639.214722245
639.300822214
1759.53024241
1758.8973918
639.273151772
1758.30373121
1757.94787656
640.038932721
639.6600399
1757.85579301
1758.43693277
639.463488649
1757.33791625
1757.73816785
642.280409793
640.970893686
1757.59317336
641.935297328
1757.37934525
1757.30019702
1757.45892024
643.301020286
643.726305554
1757.30073328
642.907265653
1757.34322326
1757.23181052
1757.57136508
640.951169899
641.860996722
1757.52546256
1757.10507327
641.695671912
1757.0555584
1756.40607278
643.282871977
642.488077872
1756.80929353
1756.84774089
642.56071279
1757.83705022
1757.89383175
646.095887947
644.45523524
1757.44989658
645.268434393
1758.64736309
1758.20636913
1760.39259381
647.055392358
646.441798035
1758.49738618
646.009546886
1759.51200943
1756.95324059
1756.2942498
643.779707204
643.496674125
1756.76908488
1756.30215223
644.294586245
1757.03312785
1755.95921373
645.002045403
643.719387096
1757.03727346
1756.18898519
644.764602496
1757.9274218
1760.77523564
647.967702922
646.499354856
1758.35849073
646.255394469
1760.61194704
1756.96234164
1756.5017537
647.365743925
645.696716703
1755.12305953
645.731434672
1759.41627391
1756.17900583
1755.49658771
645.02485977
643.383884084
1756.73066375
1754.77319417
644.766254927
1755.05987619
1751.93890475
644.557633494
642.945085158
1753.19518373
1753.5712665
644.329351262
1745.56113326
1751.08415447
666.833863384
648.833023143
1751.21503131
663.509048541
1743.36472891
1731.54164838
1733.11232584
710.071273885
625.861422318
699.302025854
1736.71428492
1727.65768118
1742.57512552
1748.50035814
647.436348927
651.987900169
1749.19273154
1742.9892756
654.645439686
1725.83038169
1756.50001503
580.501334748
661.887975052
1729.03084474
661.978176495
1745.48320227
1758.58213002
1762.34790558
627.196315495
627.524346541
1759.30441289
627.368764436
1760.86264669
1756.1090402
1753.06420918
626.582168019
626.510373594
1756.00707256
1753.76423745
627.104412075
1757.55130845
1757.48135778
626.878814528
626.943136706
1756.63290973
627.230367742
1759.05989786
1755.90742309
1754.45536113
627.286421039
627.644234722
1754.16968152
1755.62726094
627.492342589
1750.1331003
1750.72690859
623.961493806
625.893763128
1748.89018497
1751.81351966
625.343870906
1749.0060636
1747.97048718
623.325543645
625.115193768
1747.89650522
1748.82617444
624.779225127
1751.10643199
1753.15363358
626.891950443
627.86743103
1752.54365543
1751.91821415
626.638964749
1750.05482076
1750.65260831
626.758271744
627.831911805
1749.76230487
1751.06068047
626.401041571
1750.67427335
1748.83204976
627.090230655
626.342341662
1750.39182081
1749.45746061
628.110708469
1752.47545054
1754.34333262
629.457514368
632.126724958
1752.40389374
1754.25968333
630.277330798
1751.04156182
1750.78475196
627.872364622
630.49431756
1750.04751618
1751.56891492
629.346906269
1752.58875575
1754.15087884
632.946468404
632.03574871
1754.22481397
1752.76788751
631.16459224
1757.55021578
1756.05355636
634.962197754
633.8590571
1757.68195514
1755.91035771
635.566254274
1758.98685195
1759.81182036
636.534374876
638.737997021
1759.00563555
1759.942385
637.288940947
1757.3889737
1755.55204167
634.761175504
637.063454298
1755.82789055
1756.97786552
636.454102042
1758.81135876
1759.40323262
639.58309407
638.722342375
1759.89383669
1758.31122983
638.139799974
1760.10511693
1760.26168164
640.495040181
640.153636355
1760.24253786
1760.35984062
640.961122281
1759.81304352
1759.70387855
640.685143554
640.518415433
1760.26609429
1759.40771972
641.02950756
1760.11956573
1759.91613017
640.920635135
642.06176561
1760.37055369
1759.67469026
641.653578352
1759.6833694
1758.71048673
641.295577608
642.219467733
1759.18731629
1759.20166163
641.705763136
1758.87546512
1759.32191902
639.854166213
640.04851208
1758.9417727
1759.1982372
640.295231429
1758.58811885
1758.14684267
640.584467556
641.628682168
1758.58319618
1758.18133669
641.17447142
1758.73275291
1758.33997214
640.995452456
641.826532908
1758.95146535
1758.06361033
641.184938332
1758.56008883
1757.83911292
642.304048024
642.301478362
1758.31237932
1757.93099444
641.958831453
1756.93233543
1757.63363164
641.929599959
641.949439426
1757.01700401
1757.58686165
642.220345926
1756.4234508
1756.10767213
642.320110649
642.537894973
1756.45938861
1756.07933196
642.368867919
1757.169476
1757.89068821
642.387192275
642.725579813
1757.77133925
1757.89748147
642.498272555
1756.82908059
1757.24730651
642.263867868
642.550504237
1756.43714221
1757.73836421
642.499255712
1755.65637332
1755.95100095
643.010028766
642.522234329
1755.8597142
1755.87787605
642.47507982
1755.27340896
1755.22921872
642.915091568
641.697844814
1755.66362476
1754.66425698
642.137572289
1755.42447099
1756.49441084
642.01462256
641.058692627
1755.93445217
1755.68025852
641.77717118
1754.89265508
1754.18144175
640.683084598
640.415227063
1754.2143605
1754.95242389
641.249857841
1753.16408919
1754.57950567
642.200425181
641.418205561
1753.7158095
1753.91201159
641.070904444
1752.40366188
1751.68997604
641.768552116
640.981976283
1752.6605819
1751.93666054
640.725717808
1753.09668126
1753.53251961
640.372739817
639.501575666
1753.56130348
1753.16954616
640.162385763
1752.76262113
1753.30133382
640.810357432
639.809851127
1752.66822006
1753.10739001
640.204508669
1746.7768261
1749.88665607
650.527355075
643.094856539
1745.55023443
1750.73180295
649.394704255
1735.39482594
1763.02688935
658.983773481
612.456993569
1733.69483953
657.441705312
1766.21196784
1748.63818273
1752.92011063
643.156847547
649.030061358
1752.07799901
1749.50654092
649.331004134
1737.30928549
1767.70606816
613.669895982
656.185633184
1737.80815578
656.815176354
1767.6356659
1755.22950199
1756.15706967
626.470126952
625.034805976
1755.80183324
626.19785085
1755.24647087
1755.07855412
1754.56890422
627.662530951
628.57176683
1755.30206168
1754.68092629
627.605866764
1754.94044339
1754.83502561
624.841586493
626.345255924
1755.09708685
626.048798591
1754.77211585
1755.02014812
1755.32888372
628.76338174
627.778467536
1754.82783168
1755.3125856
627.537450667
1753.56288809
1753.62089743
629.238995886
629.421113263
1752.73163944
1754.05374788
630.282190075
1753.20095693
1751.82422569
629.698137578
631.827001742
1752.11174476
1753.03839296
631.0446896
1754.44840197
1755.23344908
629.980727487
631.603703561
1754.56162491
1755.2999295
631.14725236
1754.34869294
1755.40675972
633.174323331
632.962257702
1754.29428752
1755.37562365
632.268612409
1753.29677669
1751.87336322
632.069832113
632.612506298
1752.3557152
1753.05159111
633.404367862
1753.67208508
1754.1202403
633.162516473
635.295408051
1753.14946267
1754.17490532
634.254487866
1754.26325962
1755.31959466
634.076308648
635.725829373
1754.26452768
1755.06415672
634.87558429
1754.2173754
1754.30561879
636.240622501
636.185091711
1754.24625143
1754.65781417
635.53719821
1755.87288005
1755.21609767
637.60779603
636.576915389
1756.41916563
1754.9142985
637.993168784
1756.80700294
1758.53393868
639.214737996
640.644186139
1757.56335624
1757.58285264
639.399565955
1755.26773879
1754.3702128
637.140757928
638.408667342