/*--------------------------------*- C++ -*----------------------------------*\
| =========                 |                                                 |
| \\      /  F ield         | OpenFOAM: The Open Source CFD Toolbox           |
|  \\    /   O peration     | Version:  v1906                                 |
|   \\  /    A nd           | Web:      www.OpenFOAM.com                      |
|    \\/     M anipulation  |                                                 |
\*---------------------------------------------------------------------------*/
FoamFile
{
    version     2.0;
    format      ascii;
    class       volScalarField;
    location    "15";
    object      p_rgh;
}
// * * * * * * * * * * * * * * * * * * * * * * * * * * * * * * * * * * * * * //

dimensions      [1 -1 -2 0 0 0 0];


internalField   nonuniform List<scalar> 
28582
(
19512.417059
19512.2875849
19512.160691
19512.0519187
19511.7110223
19511.5863559
19511.0998473
19511.0801262
1193.69703275
1262.19341159
-0.0638332029719
19510.9218676
16570.3100544
16603.7317292
19511.3507872
19511.1643661
16594.0582259
19472.9821804
19470.6191482
19512.3483181
19512.7970434
19514.2198997
19512.1253355
19512.7815539
19514.228802
19511.8233645
19512.1470735
19511.0286279
19511.8073591
1296.89315804
-0.0720608760428
-0.0306078767309
19509.7759302
19510.7530861
16551.1456893
16369.2029917
19479.1332884
19512.4710845
19511.9485763
19512.8879034
19473.5671975
16437.0339434
19469.6539685
19465.4862943
1208.41817427
1237.08866087
5.40147627968
6.94862388197
1230.10974161
4.21706405547
19479.3984336
19481.8239142
16571.4392402
16625.5128658
19481.5613106
16619.6376965
19479.763109
19481.7298627
19478.6407411
16587.2794383
16642.0215428
19480.3636657
16631.5703914
19479.9225186
19474.6588241
19475.5064922
16579.9933711
16631.3890822
19477.6696007
16610.416195
19473.1685611
19473.1783331
16509.6042372
16528.7345514
19472.8829735
16545.8567771
16570.7144723
19472.8170781
19469.4254993
16561.388734
16558.333058
19472.2686305
16577.4050364
19471.035507
16590.4318476
1225.69034723
5.25571690652
1246.48340603
1279.23970096
8.35379610835
9.19156274702
1271.69169989
5.35148347792
6.89443629559
1303.99575948
5.08985575716
1325.34042898
5.55896927489
19478.2802503
19482.8063112
16486.1931854
16581.9320856
19478.0250317
19482.7783408
16520.8290859
19472.7019372
19465.8684808
16427.266284
16409.8029962
19471.706148
19467.8705755
16460.8170732
16568.7521502
16528.970496
19477.326978
19476.6631852
16466.7452471
19473.9572028
16514.5921789
19474.2399567
16477.9352171
16497.524885
19474.2138234
16462.3714472
19475.546623
16479.5045286
19474.1027304
19475.7672523
16449.9116629
16472.6578281
19475.9808233
19472.7619131
16469.8812976
19467.3668139
19468.429956
16541.6093095
16544.908551
16545.3590558
19468.6728057
16530.2074022
16542.6671519
16542.815759
19463.7918339
19466.9016587
16512.5184478
19464.7790932
16516.5317968
19512.9927549
19513.0579887
1348.46714353
-0.0447199900682
19510.2169979
16517.2679791
19513.7496226
19514.3634325
16420.3664272
16536.5068187
16486.9853598
19514.7193652
19515.1642924
16457.9515059
16406.7086393
1246.57664304
1332.49921408
1356.56294134
4.88560668056
4.80346507042
4.19111823207
1379.79394571
1392.93570369
19471.8678071
19476.4269853
16456.3491519
16523.9656909
19472.4454484
16461.8872492
19476.4249335
19470.4985683
19474.8445245
16406.3827043
16467.6279595
19473.5015802
19470.9087785
16457.6257447
19464.3867303
19463.6715238
16503.6791344
16527.4985045
19464.1433744
16494.0410541
19464.1739791
19464.75227
19464.5635246
16451.8971522
16510.9397683
19464.5128224
16477.0870762
19464.7570902
19462.3387059
19463.7109242
16423.7215308
16421.1730136
19463.6699665
16396.6155808
19462.1696252
19460.6969474
19456.7815082
16387.6458824
16405.3919529
19458.4813206
16386.5679128
19459.9846709
19531.055452
19524.8009582
19516.9825289
19514.2710519
1011.02598992
1068.44042604
1034.54638424
1087.55945932
1103.4815819
0.170802412728
0.291610503097
0.0643253305912
-0.123614597119
-0.120695752006
-0.0549614185678
19537.5120732
19535.7368742
17462.6436402
17358.0695771
19534.736607
17304.6676071
19533.1690559
19530.727618
17333.756418
17280.9086688
19528.6059909
19527.8576054
19524.2848781
17286.9495288
17050.1351381
17231.6123376
17007.3084195
19520.3361837
19516.4484058
16972.3375737
16827.6261741
16919.4585339
16720.2981669
19520.8173218
19518.5061503
17200.5052564
16971.3260814
16881.7616116
19513.664814
19515.0213149
19512.2585378
16882.8741559
16662.5010426
16805.3862
16606.7386276
16802.6518104
16633.3844565
972.86125199
988.986631236
1003.70748202
8.73554780269
13.6620002676
7.60634222698
13.0753052294
14.8061304901
13.2159574142
15.1428940389
12.9790402772
999.095644242
1006.78771097
1035.9651723
1019.57810263
1042.91161034
6.81818304075
9.50338861202
5.10786059598
6.87262643655
1100.83555656
1072.83326617
1103.46022708
11.6549758793
14.2854606619
9.80572782605
15.6531253481
1057.82399043
1067.02795364
3.36149702027
3.59175286759
3.70454393802
1115.76934469
1098.18215757
1131.65684837
6.85986582654
15.7896984222
4.22871202645
9.15696709236
19524.4575702
19523.5352161
17509.3310949
17429.3553829
19522.4156339
17477.6383383
19525.1324305
19522.6120427
19519.1688677
17395.4997616
17399.8737764
19520.5808643
19521.2902364
17442.1300524
19511.7558295
19515.2969581
17339.9788652
17225.8563815
19516.8292949
19509.0694289
17260.4291107
19520.5317896
19518.9693019
17372.0016958
17306.850575
19521.0841043
19518.5205105
17348.8964977
19517.2079605
19513.4414707
17295.9438042
17324.3136019
19515.1767582
19515.6704155
17339.5736856
19508.4540431
19515.2585645
17218.1441002
17261.7499414
19508.765529
19514.8561557
17200.4881445
19500.0926688
19490.2455477
17142.9595579
17042.4400784
19500.6867204
19489.2082715
17130.0192603
19505.2235085
19509.5660462
17248.8755414
17169.8734512
19511.3657798
19503.2656901
17187.6048721
19497.1447512
19484.7906873
17023.3588063
17095.6903905
19486.3792078
19495.1476877
17114.2732734
19468.0080877
19479.3855268
16903.8975579
16959.4796164
19472.0327749
19477.0769045
16889.7382841
19459.4958127
19463.0011959
16858.2769791
16809.454113
19464.8506295
16841.2023191
19456.9217762
19463.8220077
19472.8931231
16937.5171283
16832.8499744
19474.336114
19461.7418003
16856.6025022
19455.3758151
19448.2485803
16758.4067508
16770.4591754
19452.9873098
16798.9154609
19450.4387382
19498.1286904
19506.7992863
17134.6020719
17163.061735
19500.5174763
19504.6349457
17097.910948
19490.002974
19482.0181195
17060.3470994
16938.7230117
19492.5233943
19479.3939243
17025.2919305
19486.3307214
19473.316883
16910.2130039
16958.5923631
19475.6095477
19483.9390258
16990.8545938
19457.2311508
19470.2604946
16792.7760308
16852.8192058
19459.1043248
19467.8050469
16765.5136171
19449.0550659
19447.2626565
16724.9725903
16634.540199
19450.2175908
16693.649678
19446.3387293
19454.9966317
19462.8369806
16828.5482783
16728.9117128
19464.6325323
19453.463381
16745.6451165
19447.3388271
19445.9254772
16609.8795315
16666.9303968
19446.3889672
16675.6282586
19446.4578511
19447.266656
19459.3707923
16737.20629
16793.1983092
19449.3813422
19456.9258406
16738.6693208
19444.6182671
16682.533756
19444.5022462
19511.4338324
19511.2767844
19511.9948621
19516.573141
19519.6376756
19532.5123329
19511.1658335
19511.2152957
19512.0974017
19516.3177676
19519.04129
19532.6419464
19500.4092559
19505.4538057
19504.6181155
19510.2562609
19514.3023268
19517.7227585
19524.5158441
19508.8582556
19502.7834009
19506.4201736
19509.0363727
19511.3257169
19513.4847243
19515.3052613
19517.7952674
19532.3532034
19508.2506254
19507.8838746
19509.0555247
19510.842642
19512.8538182
19514.4615221
19515.5476725
19531.3867181
19510.911066
19510.0269135
19510.2741442
19511.5513387
19513.5199845
19515.7773384
19518.4787155
19533.8218846
19513.6147768
19515.8010076
19518.491759
19532.8327339
19493.8000795
19503.4751987
19508.5410245
19512.2323956
19516.5586936
19522.2962013
19587.3108112
19398.6702675
19500.8188655
19504.0935385
19512.0018558
19513.7817845
19514.4263641
19516.0119618
19521.8708339
19532.4640528
19506.8186969
19508.0312987
19510.1843416
19511.6718483
19512.9261467
19513.6979921
19513.7657524
19524.0086413
19510.5443359
19509.8557026
19510.5118803
19511.931055
19513.738907
19515.4475494
19517.5416942
19534.5053713
19513.6491297
19515.3927384
19517.3249537
19532.6370581
19488.3831211
19502.2546012
19510.0881017
19511.1831245
19508.4683205
19501.7660259
19491.332076
19435.012785
19493.1892673
19505.0278209
19508.1657343
19509.7850569
19509.4898241
19505.602075
19496.888612
19493.5284919
19506.7096173
19507.8525508
19509.0255715
19509.3230291
19509.4163032
19507.7767695
19500.3684577
19521.5451498
19511.6577777
19510.0708091
19509.0841053
19509.4193868
19509.8725704
19510.6725305
19510.9434368
19507.9742379
19528.1838604
19510.5003862
19510.5355109
19510.9549038
19511.7230702
19512.6634005
19511.7313341
19529.3483175
19514.1886125
19513.7061121
19529.6045617
19494.1557671
19502.7423516
19512.0496611
19512.9559907
19511.6690011
19508.6532261
19509.4854171
19491.1272351
19501.254757
19502.4887654
19507.53072
19510.8947072
19511.2699006
19509.9055529
19508.5477681
19506.919215
19498.4454774
19511.0575076
19507.0939433
19505.4899318
19507.4258724
19509.1205027
19508.9819452
19509.3063237
19509.6677957
19508.3270227
19511.7661062
19510.3932773
19508.9175161
19507.5422555
19507.8494104
19508.7432573
19510.4024899
19511.3446172
19511.3955923
19516.4399195
19509.2377513
19509.7527749
19510.4770639
19511.4055563
19512.1913409
19513.2323715
19517.1399034
19513.8212423
19514.95813
19518.9605477
1180.02804393
1232.431344
1281.19401748
1337.63310223
1390.05047986
1465.56042075
1478.32936555
1490.07363241
1127.67748197
1144.52218704
1201.02712346
1274.99212835
1316.45167569
1321.16977378
1410.24479999
1424.23447394
1429.42388737
1413.71377685
1141.22071699
1226.27081393
1282.09356641
1335.9565195
1381.78785231
1409.75749923
1385.44809107
1364.16685438
1387.55211367
1380.56001162
1232.71260511
1301.92817219
1375.09599519
1418.24672981
1418.48380007
1367.92169425
1351.34980015
1374.21897532
1367.17834497
1305.99391264
1338.06380669
1335.40083029
1364.559813
1371.30374267
1378.14983852
1378.82125921
1381.85364992
1388.51482249
1365.80681804
-0.0564984478987
0.158972371593
1.04649185124
0.208419428168
-0.0307296450011
-0.0265181239151
-0.0359920240523
-0.0386289383393
-0.118411190926
0.158924388368
0.302901990137
1.2685024189
0.230548381004
-0.169387029828
-0.00989212224131
0.933335946633
-0.044068491142
-0.0899023130589
-0.113450340531
0.278385868027
1.30805062008
-0.062076083751
-0.143095065579
-0.0600203081123
-0.0308097470604
-0.0630694424344
0.700566235399
-0.0520803097351
-0.145215317751
0.404642400663
-0.0846465004477
-0.0999589925371
-0.0527495160369
-0.0257608620968
-0.0459350748967
-0.0416072828327
-0.0625596281211
-0.135082232292
0.482100936394
-0.0863609196778
-0.0332465567217
0.834911819643
-0.0525750341381
-0.0859976401277
-0.143648080267
0.563264889968
-0.0737118043204
-0.148042836002
0.504300535747
19503.0632323
19500.9535166
19503.5314944
19497.9258907
19501.0071717
19499.6189607
19501.737711
19507.1905659
19506.0807563
19507.7935183
19504.795578
19503.2663205
19504.3622404
19505.0594117
19504.3409076
19505.1725487
19505.5357093
19502.3656874
19504.2703002
19504.6400507
19505.7672459
19507.8048366
19506.7260822
19508.1647696
19506.2315447
19507.0861117
19507.3386483
19508.9249574
19499.2439815
19495.3248358
19498.777804
19490.6391394
19495.8118204
19492.1732938
19497.4804608
19505.6824979
19502.9007738
19506.2128425
19501.5857333
19504.9316724
19502.436444
19504.8838652
19502.0197489
19503.9967506
19505.3970579
19495.5048651
19498.7475684
19502.7431056
19502.6333187
19506.5335484
19506.93736
19511.1222555
19503.9064189
19503.3815508
19504.2348248
19509.4084458
19495.6602689
19490.1874864
19497.1040776
19487.4115913
19495.4015026
19489.4470032
19496.9885583
19505.4028657
19503.5978056
19506.6440631
19503.4651911
19507.1723546
19504.2945963
19509.359696
19498.3734501
19501.8477029
19503.1411476
19497.8630504
19500.4076348
19502.7734946
19504.5980479
19504.4551575
19504.8943922
19508.8524814
19505.1393698
19507.9240929
19506.5585296
19510.024289
19493.4381174
19497.5486645
16402.155618
16525.1336478
19497.8476913
19498.8604533
19501.3119724
16413.8693057
16462.8539969
16512.2519472
16543.8217487
19508.2230217
19505.0087144
19509.3474655
16493.7140473
16593.803625
16559.4055029
16590.2137403
19513.0508817
19511.7148499
19512.2579359
16613.1137109
16545.7183734
16584.584011
16493.4369679
19512.3917333
19512.1559184
19511.5603112
16486.219481
16368.0132382
16452.9953433
16362.8345318
19509.779198
19510.7801256
19509.517415
16331.951491
16189.2263436
16324.8366123
16219.1055493
19509.7041676
19508.4515455
19509.1520641
16165.2287814
16216.7913885
16210.5867907
16222.02522
19503.8549687
19509.0136713
19503.6452897
16218.8490338
16276.3642956
16206.5936478
16171.7615219
19480.5019466
19492.9222765
19501.2906832
16489.9179283
16166.5809016
16339.1061002
15998.7604469
19512.0564983
19507.4545732
16785.5538601
16673.5324255
16690.936091
16619.9913281
19500.6283496
19504.4013938
19502.846689
16637.8730183
16527.0606459
16572.8677866
16447.3498928
19504.9907
19503.3859383
19505.3457536
16499.8234812
16522.4062864
16430.4123884
16419.028225
19509.7258139
19507.5773807
19509.510103
16531.2947526
16569.8768368
16424.2357749
16466.1753389
19511.3156367
19510.5214205
19511.0157473
16571.1047073
16463.8172185
16464.882742
16381.5656055
19510.6563717
19510.6740183
19510.166743
16464.0548251
16353.9394311
16372.064933
16310.3441553
19509.1857412
19509.7636771
19509.3583533
16301.2032757
16223.3101569
16303.8419054
16326.167489
19508.0493606
19509.0178405
19508.9135782
16222.5537489
16226.497466
16317.9023966
16254.4204146
19503.7996201
19508.652712
19508.0031186
16213.7985835
16167.9206192
16235.5361214
16227.6967148
19519.4891336
19507.678594
19530.4040025
16325.7327136
16137.7994936
16393.7822256
16268.9672922
19508.8843775
19510.7358468
19509.7286792
16645.4733043
16586.7125484
16597.6981969
16541.3388379
19505.779108
19508.8688619
19508.0702435
16541.2814587
16443.9998721
16510.2542546
16468.4176365
19506.2527704
19507.4612592
19507.2578663
16422.1434016
16387.1720078
16444.7823491
16323.2583811
19508.4783512
19507.3786918
19507.7119715
16389.7037273
16409.5353227
16297.7281191
16267.6940688
19509.1616545
19507.9946553
19508.3064282
16411.5138885
16371.4190554
16269.8258936
16254.0815605
19508.9362162
19508.4118051
19508.8865156
16331.8430146
16291.5826193
16234.7824534
16258.2426223
19509.7600335
19509.6645847
19510.5814689
16334.9336418
16389.3919796
16336.1625159
16476.7288085
19508.9722479
19510.6159296
19510.0680629
16362.9995265
16271.483729
16449.6720044
16352.580389
19508.942703
19509.7404899
19511.095857
16257.1362536
16247.8456075
16336.9396003
16319.7128345
19534.4001053
19514.7517116
19534.0047211
16412.3028887
16296.5944796
16477.4804411
16272.699261
16614.8561434
16551.1868447
19509.7569974
19511.2779208
16527.1338559
16486.4334211
16584.5805326
19508.0486805
19510.073542
19508.9102869
16458.0311926
16305.3993065
16530.9123683
16341.9349581
19507.4940729
19508.2128801
19508.1152763
16274.2600906
16246.1034962
16309.1797629
16318.7559891
19508.3080351
19508.4392223
19508.9682512
16248.3370221
16241.8539004
16326.1485603
16334.378702
19509.4710754
19509.3676376
19510.0873653
16235.8355104
16278.8751416
16339.1998346
16339.0182468
19511.1527229
19510.7866506
19511.3449276
16322.2341999
16452.3118261
16344.8936017
16387.7796315
19511.1964844
19511.7454705
19511.9804316
16447.5708892
16365.1357788
16404.2760034
16390.3425635
19512.9004282
19512.3383995
19513.6505538
16351.4967127
16334.8968136
16390.9549964
16349.3876228
19533.418402
19516.9034688
19533.4324803
16486.2030068
16252.5201723
16469.5045775
16221.5570785
19509.2625299
19510.2462461
16345.0340296
16378.3828436
16552.8048946
19510.1340955
19510.599251
19510.9237102
16381.7682194
16384.4668625
16543.9066905
16480.9211679
19510.9917308
19511.2439237
19511.747951
16389.6242539
16351.2694219
16477.1654913
16392.3201924
19511.7300058
19512.1308505
19512.4159907
16347.8381063
16385.58774
16376.3354317
16390.5227871
19512.7045827
19512.9174152
19513.4634033
16401.1743056
16396.0328954
16388.7677019
16372.0063445
19514.5039812
19514.085928
19515.3446208
16400.9055369
16336.0770294
16384.3569145
16319.693685
19533.2536908
19517.8287169
19533.0474834
16458.8324599
16219.7137262
16457.6061447
16262.4360186
19513.4627482
16391.0188367
19514.3239415
16381.8526188
16364.5941234
19516.387875
16379.3156716
16313.8822368
19533.1885546
16456.5587736
16268.1007042
5.38212031987
4.61628545883
5.85731589039
5.47059944628
1162.98446398
1145.96553195
8.29902450865
7.46695288534
11.0037992024
12.9354996604
1208.58657329
1163.7106385
1201.70038234
10.4820112421
12.0911778009
22.8573161583
20.2194136598
1263.29196636
1242.88548719
1270.05969209
13.1247649513
7.14250736873
9.84499127229
6.90603265668
1308.5354175
1293.18131264
1317.15392911
5.58272174029
6.67299194583
5.85678089181
8.28530128111
1355.92461633
1334.62906282
1356.39214709
5.66856154152
8.36230111583
9.41628850206
9.35121415709
1436.18737375
1396.45368537
1430.11545377
9.39180275751
11.160686687
9.06501082418
9.56707786301
1475.56729763
1443.27438515
1448.55299264
10.7725760898
9.61245907639
9.17224083615
8.24700858692
1470.7368211
1454.90292997
1461.44575803
9.11922499781
7.90885466661
7.78561193898
6.98938894131
1670.13060258
1429.22949064
1530.54229506
4.78607544291
2.04151668057
4.86408648118
9.98751931351
1139.03151436
1137.5621684
1160.28695096
16.8638383462
18.9171810374
21.6876920471
18.9688193403
1156.11640771
1180.1821484
1206.02116741
26.3279543943
24.9272857784
18.4105435495
16.0577798156
1245.45343553
1240.70347231
1274.54328758
17.9135381606
11.4346059128
11.6710155536
8.77276870133
1296.54806146
1306.02865499
1328.90697487
4.87369524457
3.84759668759
5.46129069562
5.06925744537
1339.80214954
1347.81816547
1363.22217056
3.8388056754
8.19932884287
5.09059625168
8.38863201998
1359.61618861
1353.99207896
1383.58610627
28.1603762324
23.4713877634
27.1871807587
24.7990114463
1425.83225867
1409.6988687
1407.9489924
10.8440565038
9.89353127483
10.7158673611
7.49322747889
1422.57250883
1400.88490062
1398.36915788
8.42729547838
7.54721820007
5.97010689842
5.93013051914
1441.20845898
1404.65182421
1420.31049004
6.79257255132
5.39030492673
5.10756670205
3.68839609743
1545.15914122
1393.01502493
1511.35116817
4.52567450192
7.39177572455
3.8393328983
6.57276211223
1183.05970752
1150.60734446
1193.91914549
26.2018797701
12.5229225294
23.0579607805
12.1456637624
1256.69405051
1240.69159961
1275.00414512
6.72931233844
6.94288728453
6.09122657656
6.81132447222
1307.14787763
1306.06199725
1336.74918602
7.17847103513
7.05992548762
8.29224754773
9.30023743843
1363.11522068
1366.19357142
1389.94840774
7.02722382626
7.15014489822
9.6052856175
9.85644565515
1395.25558098
1408.84211108
1420.49269782
7.63954232653
9.16369044298
10.2845746904
10.4821244471
1417.9574066
1426.82153446
1413.64817083
11.469452808
11.0490724272
11.0067440139
11.5445794244
1361.08308537
1363.04331799
1326.02951509
17.7316874697
15.1985266489
20.7779404206
23.7523459208
1375.44938685
1340.20896612
1361.81588662
7.78673972247
4.87373279043
11.5005215949
4.34867226872
1406.69883193
1379.22457202
1397.10608196
3.70078290106
3.03015708425
2.78359491814
2.5931858582
1483.96945487
1371.5243853
1466.30867107
3.76912404536
7.07569488611
3.47052693186
8.10624535881
1263.95808224
1236.43290451
6.05170906069
7.68877743492
6.96636270439
1341.64568085
1276.86150378
1318.37296377
9.63493250148
11.5222263492
9.47612523296
11.0366940209
1402.53252909
1351.16959011
1375.32719733
12.2963135668
12.5823473083
11.5433520104
11.7554582459
1424.24509724
1387.92118532
1390.75851911
12.8725585654
12.7347301161
11.8423193739
11.9090940746
1393.38546361
1383.82642222
1372.15375626
12.1444188947
10.6809151897
11.1680914106
9.07227371145
1351.51783211
1365.71633989
1361.63911796
8.51474049211
6.66034427708
6.55604497061
4.85204899025
1363.97036315
1363.36454467
1370.28123952
5.80156041455
4.32157847772
4.24277227482
4.23316021932
1389.35402329
1373.76812457
1393.80016285
3.26736381711
2.79364159937
3.86387629176
3.74226600098
1462.60850798
1374.06696847
1464.52081064
3.66968003566
9.23206597315
4.97571400445
10.8648843025
1326.76523294
1267.55404858
8.92926605152
8.52376136342
4.34610898568
3.85703912906
1340.51118038
1285.16479726
1297.50084638
8.6613026507
12.2719863652
4.00548556142
11.2859913562
1349.57164474
1296.97030257
1335.96742165
17.678106929
12.2107135995
25.9340040881
12.7464188779
1368.79306613
1363.62174848
1372.38218806
6.73898335886
5.68176249039
5.25123313646
5.14988410121
1375.88205878
1378.1502246
1384.0409971
4.96798063696
4.91824815006
4.86647152615
4.97236555839
1404.23149095
1384.33143763
1412.22881537
4.31392458953
4.32823856319
4.26636757305
4.29796990303
1461.09298888
1373.05648161
1452.98210692
6.09038228185
12.1854773006
5.990402414
11.9716796252
1367.44591646
4.80188460407
1390.83816915
4.79007380864
4.96321376736
3.96242872176
3.99613738494
1415.3083775
4.2201127375
4.19420568574
3.38982907958
3.12207516963
1441.01187434
5.49903843074
11.1112775731
3.98343536024
10.2187515012
19479.025441
19479.0645571
16393.7176114
16452.5373929
19480.758292
16445.3346238
19476.5361036
19474.0283704
19473.7375987
16497.7695721
16551.5318482
19476.8906245
19472.0707421
16494.2181045
19484.4607896
19482.0509466
16424.3651131
16474.6622252
19482.7671596
16497.1546449
19484.0584954
19484.9067047
19485.0568508
16441.053841
16530.9457609
19483.6563249
16515.4508792
19485.4047714
19480.7086862
19475.1943126
16511.2700574
16517.4663668
19479.1201641
19476.7811221
16529.7997173
19481.1590837
19476.6487478
16558.877659
16528.1773394
19480.0365264
19477.4434821
16546.8582155
19478.816353
19483.3068303
16531.54921
16551.438137
19481.2831808
16572.510892
19481.4411332
19475.6865725
19475.5702791
16563.4381441
16610.2586315
19472.9049436
16587.6249356
19478.7061519
19477.116424
19475.4169453
16566.8691064
16570.292076
19478.0562763
19475.1882446
16572.1857263
19476.6172165
19476.3751074
16602.8590923
16576.7551527
19476.6871573
19475.8418335
16579.1281465
19472.9950371
19474.6124798
16631.841665
16630.4201417
19472.6215365
16636.1501298
19474.5736066
19472.1398846
19470.2705325
16603.4987773
16538.7067132
19469.3324692
16602.3344892
19473.255325
19477.5511655
19476.69803
16608.880143
16575.8215964
19477.0805866
19476.4167958
16606.7321129
19476.4928599
19471.9759868
16514.8049453
16541.3112835
19474.0270815
19474.6350517
16574.2521076
19461.7631168
19465.8626811
16428.0934811
16475.2600607
19465.5137289
16417.8501217
19459.8628219
19457.0701492
19442.7851764
16393.7941699
16365.5354868
19449.6955754
16391.7302783
19452.7099244
19468.8589931
19470.1796566
16459.8121863
16423.7299817
19471.546623
19468.7142168
16417.3952992
19464.9569954
19460.593543
16360.0518996
16399.2944744
19459.237606
19466.0788588
16390.2598595
19429.2660299
19430.612853
16284.1599563
16331.1705037
19440.336756
16288.3228907
19419.1792051
19421.7828392
19414.5848488
16237.7038931
16205.5518091
19421.3209923
16240.6756969
19414.0691004
19440.9129313
19452.1314459
16322.1710562
16277.994788
19450.9730336
19441.6352146
16272.0328011
19432.1679451
19429.3596088
16206.7404996
16240.7153373
19429.4592479
19432.060841
16235.4401411
19428.718631
19417.484644
16166.9773293
16192.4441397
19422.5393839
16195.3813855
19426.0837807
19440.3088277
19452.7414608
16178.4801641
16218.2647454
19452.5421917
16202.5679397
19439.2947987
19434.2998508
19429.9245613
16194.8433459
16215.6278142
19429.9103037
19434.400436
16198.2444543
19443.6150192
19454.6084445
16210.7383159
16220.1098233
19456.0991545
19443.1746606
16201.5201517
19462.2719571
19460.1648819
16232.522172
16201.8315556
19458.2795207
16190.2973788
19464.5923935
19461.9006009
19461.672947
16248.3918024
16210.9251736
19458.7419421
16196.2704358
19465.4848407
19464.6540387
19460.9401973
16199.9762367
16183.8294503
19462.2376783
19463.7557447
16189.4295011
19463.0493548
19459.7669106
16194.3544327
16164.5590584
19459.5857144
19462.4740569
16183.6209669
19417.0993839
19448.0302286
16359.5600149
16392.9441084
19446.3674496
16346.3335861
19414.3674473
19321.5313089
19289.0290196
15740.8662894
16100.5120355
15991.9265714
19298.9138873
19265.6484938
19418.872298
19450.228588
16373.7893063
16247.8673713
19448.5344287
19423.9575444
16264.408744
19326.3209652
19400.243608
15667.4105847
15284.2166683
19347.7461826
15216.6100144
19370.413425
19455.0863891
19461.5515425
16738.5350881
16770.5242068
19461.2052512
16726.4482863
19455.5027902
19455.8920191
19461.5827563
16703.5382351
16661.3831277
19461.2702222
19455.6990653
16691.1489476
19448.2148737
19447.1608013
16722.4186492
16677.9313206
19446.6279153
16692.0215992
19448.8660126
19448.3603564
19446.7019556
16641.637353
16656.677942
19448.425373
19446.6759835
16666.1899625
19457.1433276
19462.3007461
16596.1524331
16631.8388024
19462.7110617
19456.4214631
16593.0953084
19457.5389101
19464.7520806
16557.5895883
16504.5700245
19463.4682893
19458.8273057
16544.9284933
19450.925001
19447.4810246
16609.8909021
16525.4191514
19449.3421314
19449.0887629
16569.4455018
19452.9205518
19454.3511871
16492.6314677
16476.4983467
19455.6621101
19451.4231552
16524.0318074
19462.1078801
19466.0047932
16501.189873
16479.2762111
19467.4736065
19460.6991219
16455.5475949
19463.4198196
19468.2953196
16508.8067545
16463.1816167
19468.39442
19463.8505914
16455.5511518
19458.3779298
19456.6836616
16468.9776424
16419.6302448
19457.1867159
19457.9487148
16443.5064126
19459.6201251
19459.7273669
16452.0015609
16415.3620343
19460.4161335
19458.9939444
16444.2652041
19464.7578939
19467.7541891
16539.9823432
16474.9954088
19467.8352597
19464.0129407
16495.3495554
19465.3921323
19468.3799769
16549.6249988
16541.7166642
19468.371635
19465.2021065
16518.1079636
19459.9505344
19459.4700308
16461.1072498
16434.8030764
19460.455079
19458.4033393
16474.9314812
19458.7450621
19453.4210736
16515.4976153
16448.8093821
19456.4895938
19456.4972381
16492.1601578
19460.0847862
19467.6703411
16568.5390249
16539.6231276
19465.5236901
19463.5759618
16532.4109888
19456.0593086
19459.7111456
16528.66712
16442.5361139
19462.6431902
19452.8336347
16490.0875204
19446.0850891
19447.9786546
16514.7560562
16461.0090202
19452.2698309
19440.6462008
16510.0148669
19440.3965331
19431.5429227
16434.2719907
16430.8404565
19438.63304
19434.2514344
16476.9652376
19450.1861875
19457.5868412
16459.1998118
16453.388028
19455.3741961
19451.6138351
16453.1049343
19448.269059
19447.6137808
16423.7929899
16356.6392082
19452.3040973
19445.1230837
16420.1553179
19437.903527
19430.3247851
16443.541458
16359.6838409
19438.2322446
19429.8248457
16441.4465412
19437.4311022
19427.1792894
16354.1230584
16335.7626652
19435.651859
19428.6577813
16415.7340905
19430.7881931
19441.4180585
16251.4186102
16303.0963662
19433.2065899
19439.3081155
16244.0779731
19424.3277661
19423.0598876
16227.076861
16237.286986
19425.1891995
19422.801059
16232.7461616
19430.522233
19426.8750952
16308.3516829
16305.562939
19432.7988658
19428.0183727
16258.3510368
19429.5675019
19434.1635599
16259.7161063
16320.8306505
19428.6104105
19431.4724633
16257.9339322
19426.3576889
19423.5160266
16227.9543958
16242.6349441
19427.2633301
19423.1052806
16256.2641348
19431.933802
19441.5372995
16226.9322362
16240.0337979
19433.9153631
19437.7305244
16250.6312966
19430.1680614
19435.8861078
16255.5989303
16304.5000232
19428.5750239
19437.0558272
16258.9664321
19433.6937307
19441.4495632
16238.3664506
16281.7237898
19438.0752595
19439.0249575
16249.1719766
19446.5480671
19447.1880316
16192.3364026
16221.8002178
19452.5521995
19442.1382851
16197.0410633
19450.0125092
19453.5019817
16163.7179831
16182.593157
19454.7240464
19450.0763927
16176.8138082
19446.3845533
19443.4043212
16228.0219386
16218.9688638
19442.2477841
19445.6613389
16211.2155069
19450.8008413
19453.0375493
16205.4026321
16214.8661309
19455.2891331
19449.0878094
16194.7391704
19428.5219589
19447.754612
16255.2474584
16336.4388061
19427.204272
19446.1463698
16283.0132185
19378.1230793
19422.9001576
15389.3582823
16188.6428748
19369.6431648
15467.2941025
19431.85301
19439.6271253
19451.3506458
16368.4241058
16352.0102734
19453.4100735
19437.874176
16322.1127789
19400.7938256
19449.4698897
16242.0585837
15580.2964881
19400.4352583
15538.18161
19450.1926771
19448.3216041
19447.0402916
16641.4475514
16624.229079
19447.9209481
16620.4688485
19446.6820568
19450.5794147
19450.5840629
16621.8876037
16557.3082277
19449.3052315
19453.3740358
16596.3033039
19449.800272
19447.0569515
16597.6316622
16594.5971142
19450.0341388
16593.5627569
19447.3068868
19453.1154862
19459.3485901
16543.0889493
16572.6306799
19457.1600113
19454.0988979
16573.4813711
19458.5413095
19452.1438377
16501.2750932
16513.5579978
19454.1236706
19456.0905613
16477.3152731
19460.9717614
19458.8810523
16464.7581759
16435.061186
19456.3261965
19463.4100094
16448.076853
19464.539682
19464.5135688
16509.528041
16492.8560815
19461.0362901
19468.8509733
16484.2904492
19467.5524501
19475.9935308
16448.2158626
16478.8369934
19470.457946
19472.6577483
16462.4078557
19464.795845
19460.1764044
16402.3745583
16418.8983265
19460.8142785
19464.5740656
16399.6942153
19464.6673664
19461.3851057
16393.2540429
16366.0980616
19461.3971506
19463.7807036
16383.4436602
19471.3945746
19477.0918279
16426.9267232
16414.4413306
19471.479997
19476.8396741
16403.5278235
19470.6253913
19473.4872944
16345.0291337
16368.7336707
19468.8424616
19475.8207133
16373.7607578
19458.971079
19460.1327627
16396.1994402
16359.283296
19457.8825719
19461.8574527
16356.7824863
19454.8949137
19449.6782118
16402.8654454
16353.2751484
19454.4745508
19449.493423
16354.2370123
19461.683874
19469.5858427
16322.9935719
16269.849249
19465.7770973
19464.4484437
16310.6761741
19456.5506569
19450.0426915
16310.0539346
16267.4146342
19450.1420116
19458.0150413
16309.632002