/*--------------------------------*- C++ -*----------------------------------*\
| =========                 |                                                 |
| \\      /  F ield         | OpenFOAM: The Open Source CFD Toolbox           |
|  \\    /   O peration     | Version:  v1906                                 |
|   \\  /    A nd           | Web:      www.OpenFOAM.com                      |
|    \\/     M anipulation  |                                                 |
\*---------------------------------------------------------------------------*/
FoamFile
{
    version     2.0;
    format      ascii;
    class       surfaceScalarField;
    location    "15";
    object      phi;
}
// * * * * * * * * * * * * * * * * * * * * * * * * * * * * * * * * * * * * * //

dimensions      [0 3 -1 0 0 0 0];
oriented        oriented;


internalField   nonuniform List<scalar> 
92311
(
0.202665069749
-0.000220706372442
-0.00120928158
-0.202285103033
0.00105002081994
-0.00017883922721
0.202910556538
-0.000908212652824
0.000841930819208
0.202743685932
-0.000364973332061
-0.00125664439187
-0.202441331237
0.00109897506571
-0.000198899460463
0.202875920776
-0.000927421739545
0.000815866388283
0.202822543868
-0.000171647382047
-0.000160481744763
-0.00116402136963
-0.20236540452
0.000999364261196
-0.000157133096274
-0.000167927011313
-0.0001276474575
-9.38022452973e-05
-9.5479191154e-05
0.203165703596
-0.000884115142598
0.000802142516588
-0.000142812117031
0.0509599343585
-4.0734158785e-05
-3.00136610327e-05
-3.66684541827e-05
-3.20997243167e-05
-0.00034245516893
-0.0509443775764
0.000294780492745
-0.050947198087
0.0509719983802
-3.32324220285e-05
-2.83451662758e-05
-2.62043420129e-05
-3.36746218037e-05
-0.000303348712824
0.000272382296253
4.16242007719e-05
-0.023246924198
1.92417634127e-05
4.01219597207e-05
1.89628345433e-05
-0.00138887070733
0.0204657611329
0.000260593731031
0.00378935693827
-0.0261797041383
-0.00545633884076
-0.000847111565827
0.0267554795859
4.85962485954e-05
4.35234715258e-05
5.63227719415e-05
5.00957584811e-05
0.00552918398872
-0.0173467147042
0.00378333562933
0.00351505498287
0.00305022513439
-0.0233278749741
0.030823004536
0.0473661190385
0.0032194364437
-2.55107290528e-05
-2.72144004682e-05
-2.47778992513e-05
-2.74182756209e-05
-0.000317581558875
0.00027475629084
3.1813004499e-05
0.0115859606705
4.81135114503e-05
-3.64208809498e-05
-0.0115878499853
0.0115528919603
-1.26318401713e-05
2.12390597438e-05
-0.0115701126447
2.24932032811e-05
-1.38783797507e-05
0.000259465128437
-2.96659653987e-05
0.0510158089008
-2.82334351982e-05
-3.03672688792e-05
-2.99255295457e-05
-0.000278901428365
-1.60819621354e-05
0.0509664139436
-1.65297812703e-05
-1.90450450721e-05
-2.08298127029e-05
-0.0509544095916
0.000224564188995
-3.23014661137e-05
2.89122421662e-05
0.0115432786185
1.96135909408e-05
-6.59463565674e-06
4.95098422159e-05
0.0127362604925
-5.48286063548e-05
-2.30201130401e-05
-0.0127375763846
0.0127193079724
5.68275250184e-05
-1.76383614256e-05
-0.0127250643287
-0.000315431926556
0.202687877368
-0.00184531427502
0.00166335747935
-0.202190488694
0.202921512261
6.02531347486e-06
-0.000529963008497
0.000514191830537
2.81461411332e-05
0.202967321729
-0.000402900930999
0.000330084719673
-0.000536265954195
0.202807469669
-0.00187765210571
0.00165660116274
-0.202365239684
0.202987913185
-1.46665797708e-06
-0.000678046296913
0.000574716173775
7.46059298673e-05
0.203104459347
-0.000514414735624
0.000352572176359
-0.000225518728466
-0.000245631870692
-0.000236914409544
-0.00184032091732
0.202808657139
0.00168825148944
-0.202279537936
-0.000205060601891
-2.78868497703e-05
-5.8597901292e-06
4.50711233904e-06
3.91665818895e-05
0.203262309234
-0.000581123097372
0.000473712875746
0.0510006397653
-8.23559834522e-05
-6.87268556926e-05
-8.00202460972e-05
-7.3132305601e-05
-0.000431902386408
-0.0509104995628
0.000420582431123
0.051057980278
0.000235999593016
-2.08051772746e-05
-1.88172751385e-05
-1.2056717515e-05
-8.62601113278e-06
-0.000245743590516
-0.00660209831382
-0.00124252755365
-0.0244869092886
3.90239374417e-05
3.11958370083e-05
2.86280263097e-05
2.11611487597e-05
0.00603183374017
0.000363999064932
0.000277404534399
0.000607091619951
-0.0119238316217
-0.000921762994963
0.0371532923549
0.0217815397067
-0.00101855368546
0.00562164983722
0.0029122148702
0.00591824153656
0.00359608399871
-0.0030067301293
0.0234538836996
-0.0121246670786
0.0003836032888
-7.59435924144e-05
-6.8284274389e-05
-7.39875797361e-05
-6.87442485287e-05
0.0510257365043
-0.000367201600783
-6.87309519905e-05
-5.54136611628e-05
-7.08557290645e-05
-6.01863589797e-05
0.0509920319635
0.00037567420241
-0.0509657067892
-0.000108413421293
8.8622150519e-05
0.0114350774027
7.9481508321e-05
-8.76988220291e-05
-0.0114071012632
-7.78068536257e-05
7.79523660302e-05
-0.0114749169447
5.74526561386e-05
-7.33718038762e-05
0.0114906208932
-8.09273184919e-05
0.0127515556491
-0.000107195680647
0.000102070378015
-0.0127342299277
0.000182590414198
-2.16205760214e-06
4.05859949262e-06
-3.16198701484e-07
5.37497124938e-06
0.0510825429022
-0.000219978655091
0.0509942479028
-3.98532963682e-06
5.62898709367e-06
-2.18415688802e-06
1.49924957447e-06
0.000211793670537
1.02710625934e-05
1.47059912817e-05
8.46043306617e-06
1.35996124614e-05
0.0509993178252
0.000169957348639
4.10650677333e-05
-5.06329866998e-05
-1.08509737636e-05
0.012735904598
-3.81216067021e-05
-1.06126744797e-05
-0.0115002141784
-1.50504466742e-05
0.0115076570369
5.63730343045e-05
5.08877097045e-05
-1.24266286817e-05
0.0127179148296
-0.0127036486096
5.26163585766e-06
0.0127016758448
-3.84108990452e-05
4.53991901557e-05
-0.0255014527304
6.60830991459e-06
1.3325628679e-05
5.61280571321e-06
0.00199306609368
0.000477782508281
-0.000254897453188
-0.0008335500659
2.66368665164e-05
1.2028430492e-05
2.03509269436e-05
2.75588756264e-05
-0.0150608162012
-0.00285544742541
0.0132068702955
-0.0074602649833
-0.00514587283861
0.00750764391331
0.00804579147223
0.00661168695374
-0.00450933123785
-0.00689581797991
-0.000437575625821
3.41988672289e-05
3.24920211655e-05
3.71816313296e-05
0.00376490830712
-0.00220957938832
-0.00758202601416
0.00892819916021
0.00787779166652
8.93273655337e-05
0.0127457179651
-9.42796413954e-05
-0.0127497314737
-0.0127400443681
-1.10986931616e-05
-8.51862157611e-05
0.0127293166634
7.69935247424e-05
3.60586474114e-05
1.51999654929e-05
0.0115802015363
-2.62302664142e-05
2.56911344626e-05
0.0116142982662
-0.011612628649
6.08759213339e-05
-0.0127420962778
8.03032182808e-05
0.0116124021851
4.57690809451e-05
0.0127340129487
-9.04878177148e-05
0.0127188307839
-7.0174245569e-06
-7.68770866508e-05
6.8792910531e-05
7.36451846489e-05
-0.012722546249
0.0127208092138
-7.79444210692e-05
2.8040402177e-05
8.92323242227e-06
-2.03446189097e-05
1.97048543687e-05
-0.0115998982467
0.0115806180266
3.53610303828e-05
0.0127187758358
6.85444877449e-05
3.90407027306e-05
-8.40028421379e-05
-0.0127223318225
-3.6781682058e-05
-6.37040130669e-05
0.0127281712259
6.14121889878e-05
6.90711368505e-05
0.0127243867206
-7.21428609702e-05
1.79487238322e-05
3.70855031713e-05
0.0115229281362
-5.3446127243e-07
2.64984758626e-05
0.0115692283013
3.6948104761e-05
6.57351083825e-05
0.0115478885212
3.96978739225e-05
0.0127307351743
-6.67211907821e-05
-2.56462769995e-05
-0.0127397402061
0.0127402505356
-5.79314767852e-05
1.15965356837e-05
-0.0115164642804
0.0115072924112
2.05403257957e-05
-0.0115364907417
4.15077476239e-05
0.0115270765076
-3.64746761578e-05
-6.02076537309e-05
5.69148462212e-05
1.48726380841e-05
3.70439558451e-05
1.08514751254e-05
3.98992270268e-05
-6.21020363962e-05
-9.23809378963e-06
-0.012720221991
0.0127116798272
5.80871353196e-05
5.91310306652e-05
-0.0115745613301
0.0115659232688
-0.0115856092968
0.0115766767467
7.09111135036e-05
6.00390515575e-05
-2.51996718485e-05
-0.0127220378669
1.89995960308e-05
-5.49678992311e-05
-0.0115996231142
7.02980008561e-05
-0.0127212787706
5.91602709686e-05
-0.0115872699148
0.00159939255673
0.00094769842898
9.18842777898e-05
6.48543492617e-05
7.4650507637e-05
0.000103362935225
-0.024482512231
0.0187624342479
0.00283824394229
-0.00933843647304
-0.00890515543444
0.0097273470155
0.0104787785072
-0.0196958186385
0.00193830294986
0.00011752029499
0.000112898245691
0.000119659965352
0.00309386801384
-0.00143058883541
0.0156364087341
0.00156237342538
9.60129094695e-05
7.74743493784e-05
0.000106041840844
-0.0242003039148
0.00353248021575
-0.0157038419018
-0.00881350559826
0.0178467546233
0.00888777304023
-0.00881573539377
-0.0140685622921
-0.00103363409955
-0.0172937332216
1.98987904793e-05
3.77954461633e-06
1.07319709941e-06
1.9439658308e-05
-0.00337970872658
0.000821460028761
-0.00232009561441
0.000941168540984
-0.00166848145943
-0.000349775144687
-0.00105982048912
0.00597962099048
1.08668765104e-05
1.20650529597e-05
2.02614074932e-05
1.98275996079e-05
-0.0186526931648
-0.00362331216204
0.0010419684719
0.00078633388529
0.00070735033368
-0.00135182210238
3.37698220377e-05
1.896925516e-05
1.58956631905e-05
-0.0217411359556
0.00447894607702
0.00213234776951
-0.000514113996137
-9.38536006028e-05
-0.0127186400365
-0.000105543232806
0.0127339830605
0.000101716981963
0.0127223737154
9.38731257479e-05
-8.67750684821e-05
-0.0127094435331
0.000102236691445
7.35255707631e-05
0.0114608124667
-8.40292934067e-05
9.22470090584e-05
0.0114527292528
-0.0114257886229
7.32200817504e-05
0.0127352156323
-8.42304699235e-05
-0.0127049326754
9.95133547427e-05
0.0114749602954
6.54642837432e-05
-9.55298787416e-05
0.012750594128
-0.000102316756264
0.000105415498175
-0.0127496037042
9.60852605969e-05
-8.36712549223e-05
0.0127468993653
9.99772027709e-05
6.20239905429e-05
-7.99653959373e-05
7.74335861394e-05
-0.0114883524625
4.49131624429e-05
0.0115009682569
-8.37184922125e-05
0.000104965221233
0.0127505501667
5.2381378688e-05
0.0115353404521
-5.38108996358e-05
5.7612622934e-05
-0.0115281648597
4.92382687376e-05
-4.47163726408e-05
0.0115483467492
4.74235931017e-05
-0.000104302350645
0.012751882816
9.78845643427e-05
0.0127546754869
-9.07404767924e-05
-0.0127364605415
6.06033135703e-05
-0.0115157082147
0.011529986201
0.0127558267728
-0.0115044539322
-1.2651792323e-05
0.0127406162355
-5.71595432996e-05
6.19891280033e-06
0.0114988490656
2.86179115924e-05
0.0115174068513
3.62332624409e-05
-4.228515456e-05
1.89393976698e-06
0.012733520154
3.07432785644e-05
-1.10971714701e-06
-4.43189359371e-07
0.0114958771129
3.31325000563e-05
0.0127425390157
-5.39737936186e-05
0.0115100434023
3.00106012331e-05
-4.04878967195e-05
0.0127313016486
1.34813355367e-05
2.70944944644e-05
-0.012743114523
3.19047773544e-05
0.0127464881003
-4.18302517382e-05
-7.51444853687e-06
-5.35644851178e-06
4.23068727386e-05
-1.79524213429e-05
-0.0115099601115
1.63687548541e-05
0.011515459301
-4.89270878781e-05
1.7698270131e-05
0.0127329508653
2.41927252948e-05
-0.0127094394834
5.26854788633e-06
-4.36918891889e-05
4.98742886685e-05
-4.07940168252e-06
5.50218792769e-05
5.55161513189e-05
0.0115540514171
0.0115677035081
6.41722989093e-05
-5.09122099617e-05
0.0115635325621
6.14235082889e-05
-7.53516703001e-06
0.012713994864
0.0115450243783
0.011565257895
-4.31597545427e-05
5.73468769287e-05
-4.21050208754e-06
-3.70880692707e-05
0.0115659585104
5.24248105651e-05
-2.79887597014e-05
0.0127051828573
3.50293021306e-05
0.0127126440162
-1.49971778613e-06
-3.82608508123e-08
-0.0115444418965
0.0115439888668
0.0127159136509
-2.47527949621e-05
2.27612954696e-05
-3.67325073851e-05
-0.000361349834424
0.203542763793
-8.04821370301e-05
0.000275329757935
0.000144869198794
3.18249501935e-06
2.75109869972e-06
4.89226542815e-06
4.49798422724e-06
-0.000198923983699
0.0510965364827
4.0303783248e-05
-0.00386977979879
-0.00147163519853
3.58926606711e-05
3.31925875802e-05
4.17523905696e-05
0.000407823376154
-0.0169586408137
0.00453234826314
0.00501991174781
0.00477928885815
0.00137202498601
0.0262754686996
0.00450623396998
0.00189497518864
-3.98023815369e-05
-4.57850107715e-05
-5.23526944021e-05
-3.46235922718e-05
0.000185568970532
-0.000358770462765
0.0509953320885
-3.83636231121e-05
3.52192577576e-05
-2.81713600235e-05
0.0115432385617
0.0510065798203
4.20861801968e-06
1.04486708378e-05
8.28499005884e-06
5.18488569283e-06
0.000132486767714
0.0510242671878
-6.65198276438e-06
-1.56345632091e-05
-1.40024817047e-05
-6.46205749692e-06
-9.03033253103e-05
7.89000680346e-05
-9.93999134208e-06
0.0115115150799
-3.30891403145e-05
7.94536394305e-05
-2.31646404082e-05
-1.50256636539e-06
-2.93910404154e-05
0.0115727641771
4.73254481896e-05
0.0115779282266
-5.69817119411e-05
2.87609663112e-05
-7.53356625562e-06
-0.0115775853407
3.57312561706e-05
0.0510513564557
-3.47045918306e-05
-2.9516947761e-05
-2.85492780837e-05
-3.67397938161e-05
0.000116979470066
-1.87024175788e-05
4.26109807364e-06
-3.06692199486e-05
-3.16550122978e-05
-2.84270914588e-05
-3.22659793737e-05
0.000112647790395
5.9297448579e-05
0.0510570657694
-5.45287863232e-05
-5.94822272951e-05
3.80028585365e-05
-5.33799477103e-07
0.0115691690833
3.08917111528e-05
-3.03484993359e-05
3.32232876654e-05
1.86496636603e-05
-0.0115377925563
0.0115135873725
2.72393451627e-06
3.69309006052e-05
2.28978653412e-05
2.35133862888e-05
0.0012682731893
-0.0280196560741
0.000757859179342
-0.0175390794651
-0.00116320141519
3.50310398562e-05
2.9409881085e-05
3.93336373245e-05
-0.00394699521525
-0.00145520645429
-0.0139080814923
5.74402728677e-05
4.60125947798e-05
5.00277095535e-05
-0.000104357199503
-0.00228194213975
0.00209343674589
-0.00230167072062
0.00540340798628
0.0049923099726
0.00174290799739
-0.00178919505081
0.00782862242266
0.00226849922529
-0.00913529251936
5.72055138045e-05
5.2154408293e-05
4.70074334393e-05
-0.00462084794691
-0.00136622064029
0.00099848230014
2.93070032153e-05
3.09857858596e-05
3.16821728406e-05
-0.00633909905635
-0.001038927903
-0.00616745160463
0.00428796147498
-0.0127505070923
-2.56447352136e-05
9.77234251712e-05
-0.000102567326633
0.0127411921874
-0.000101239675209
0.0127482114026
4.43015857036e-05
0.0115220477798
-2.76075530102e-05
-1.59260068563e-05
1.82375862727e-05
0.0115375710208
-0.000104055020963
-1.28514555739e-05
0.0115168123277
0.0127389909526
-1.24624228799e-05
-0.0127365342459
6.63019444647e-06
2.48470070143e-06
0.0127430703103
0.0127502060384
2.22031249734e-05
-3.31200683345e-05
-1.34459035173e-05
-4.86867246887e-05
9.22692804945e-05
0.0115173109507
-1.29891137724e-05
0.0115226794386
5.88650545852e-06
-2.52669581549e-05
0.0127545229
1.02479436875e-05
-5.43189942211e-06
0.0115278275667
-0.0127183402699
-1.14921555233e-05
1.12852968742e-05
0.0127252808849
-2.04430081687e-05
0.0127078193108
2.686929071e-05
4.26227961179e-06
0.0115512875462
-2.02325480246e-05
7.03905559818e-06
0.0115730916535
4.23382434009e-05
0.0115535069132
0.0127163925287
1.51417825313e-05
0.0127296304699
-1.69008098512e-05
3.78757819374e-07
5.58125177733e-06
9.820433475e-06
-0.0127199827943
0.0127288696859
-5.35744908248e-06
2.55410499015e-05
-0.0115579593647
0.0115613735285
2.09630986466e-05
-1.38159877835e-05
1.52820479031e-05
4.03686653047e-05
0.0127382376462
1.28225679094e-05
1.49138538911e-05
5.84724886579e-06
-0.0127384768029
-2.93855199704e-05
-2.39736157198e-05
0.0127306288461
2.65238611605e-05
1.74704475381e-05
0.0127325379081
-1.25264069122e-05
3.1808844029e-05
0.0115567923105
2.94991098287e-05
4.32621636236e-06
3.43317084491e-05
0.0115602063874
2.24308487289e-05
2.05748172477e-05
0.0115495945412
2.92449720938e-05
0.0127257880527
-1.95286430743e-05
0.01272383104
-2.6160341194e-05
-2.76757854386e-05
2.99992724544e-05
3.23592375223e-05
-0.0127201231408
0.0127173672972
-2.79471228514e-05
2.78923383467e-05
-0.011529093739
4.40994949316e-05
0.0115050797913
1.07097378359e-05
3.04039784487e-05
1.23718418847e-05
3.46897958947e-05
0.0127210553677
3.67575697405e-05
-2.37629118549e-05
-0.000640202072886
-0.0492210335496
0.0492173248897
0.000766893369943
-0.000133234525766
-0.000108257499138
-0.00013459731614
-0.000106928161311
0.000360027161617
-0.000786828547131
0.0497456409907
-0.00015621004317
-0.000126307912097
-0.000153145189666
-0.000131537254018
0.000443155284431
-0.0496088608135
0.000774120115421
-0.00116809334262
-0.0499802793004
0.0502748212896
0.00101179392085
-0.000124997463606
-0.000132235838897
-0.000118857515278
-0.000133372470684
0.000371240204764
-0.000899725535202
-0.000113769147086
-0.000124138581526
-0.000119689517958
-0.000123414078564
0.000367720019873
0.0503610789594
0.00081218966337
-0.0501602726398
0.000114988541331
-0.00260965575086
0.00648003819376
-0.0084627891451
0.00239091274511
0.00173776028025
0.000125659487733
0.00010335401942
0.000110638613739
4.40111564227e-05
0.0104622503368
-0.0116740978556
0.00498725309328
-0.000703392570262
8.25965778059e-06
6.07097132605e-05
2.04397693276e-05
-0.00321588999518
0.0001124701913
-0.00236220074852
-0.0225845494448
0.00163721782597
0.000126641959838
0.000114355092013
0.000128973048123
0.0213572727593
0.00147016613869
0.000112057086777
-0.00587412366148
0.0229067343311
-0.0226518984595
0.00532850126397
-0.000123896576731
9.16998860032e-05
0.000114150900262
9.71484371498e-05
8.51836356208e-05
-0.00379174121605
6.85423209445e-05
6.85149706844e-05
5.12853080376e-05
-0.0287624992805
0.00143955294168
0.000323050238711
0.030518246981
0.0234102795444
0.00353143089934
-0.00641261094602
-0.00341579312926
-0.0075674068115
-0.00318255098962
-0.045673743466
-0.0025112291392
-0.0424968095979
0.00368478930852
0.006485701971
0.0058750909285
0.00889507378024
0.0181722814946
0.0453779987163
0.0567276862458
-0.00568869725605
-0.00102646944121
0.000672927110775
-0.00121723633967
0.000619899740119
-0.0245321229831
-0.0153490906594
0.0101529682758
0.0147432733579
0.0100996553023
0.0123561854586
0.0765305817114
0.0685131381314
-0.00485759392794
-0.00277436824419
-0.00256200596376
-0.0345653285481
-0.00658833628059
-0.0045149332934
0.000287894240009
0.00179342862299
-0.000882923715096
-0.000255125365351
0.0846754488519
-0.015204175761
0.000185142424559
-9.6058386667e-05
-0.000109035056602
-0.000114813978838
-9.23914084475e-05
0.0489741945204
0.000401751577979
5.30821288441e-05
-0.0492017233025
0.0490204424041
0.000402602335691
-9.33364218159e-05
-0.000104609115597
-0.000110287005008
-9.53944094196e-05
0.000387869728931
-0.0492219930426
-0.000138134782396
0.000128876511592
-0.0119773271334
-2.4507591692e-06
0.0119641977314
2.52920511119e-05
0.0119918075282
3.45365552776e-05
-0.000118270722751
0.00012104579384
-2.97224296783e-05
-0.0119992873479
-0.000124388747409
-0.000112496409138
-0.000112470393283
-0.000120682119644
-0.000330603320145
0.0122650909677
0.0121621140143
0.0122170445591
0.012232895081
0.000303707691704
4.73590726394e-05
-0.000127786906991
0.000137746051242
-4.10347739443e-05
0.0119758057211
0.000545295848896
-7.87095025166e-05
-9.95192307792e-05
-8.33359373856e-05
-9.67579790176e-05
0.000324688004297
-0.0493299915092
0.0494149684172
-7.96343680872e-05
-9.94441398785e-05
-9.85578556987e-05
-7.90511929714e-05
0.000306269320759
-0.0494374374347
0.000618043616417
0.0119928778608
-0.000102747732172
0.000106441467617
-0.0120010754632
3.89629847403e-05
0.0120300350706
-9.50456185488e-05
0.000105860961571
-5.43507907586e-05
-0.0120434871914
5.70100777176e-05
0.00105182787376
-0.000109498890232
-0.000113064005986
-0.000112795843685
-0.00011538991347
0.0493089479704
-0.000223331952652
-0.000183849387233
-0.000242018981603
-0.000193303683459
3.10065943302e-05
4.56568592626e-05
3.82449837813e-05
3.46791710605e-05
0.0494492896055
-0.000139124889749
-0.000114595976582
-0.000111262617288
-0.000142429129947
0.000453189173845
0.0497234947066
0.000968920499908
-0.00012502697977
-0.000141402188722
-0.000136660844087
-0.000129447385337
0.000341252449729
0.000120534161301
0.0119807211162
5.42624723269e-05
0.0118546402112
-0.000100323534517
0.000148995615064
-0.0119037432826
0.000111222126468
-0.000110697155757
6.89941402781e-05
-0.000104992585869
0.000119268519896
-6.50920686181e-05
0.0120118458912
0.0118741835793
0.000108363889685
-0.000127512595047
0.000177939740936
-0.000107362574931
-0.0119257084571
0.0500225246314
-8.64388595553e-05
-0.000115397354479
-0.000112941711645
-9.69517223639e-05
-0.00127847175739
0.000223061266374
0.00133289771409
-6.73081875443e-05
-4.7882135858e-05
-7.57505577122e-05
-3.93072401718e-05
0.0506090981122
-1.1819339763e-05
-0.00167753197725
0.000125005326318
0.0117848133224
0.000135869131116
-0.00014697207409
5.68246417684e-05
1.06988868237e-05
-0.0116944528456
0.000200614318432
0.0116643106951
-0.000238119177195
0.000112338644174
-0.000101573152664
0.000167683414875
-0.000115292125832
0.0118111151317
0.000127954756071
6.82267607069e-06
6.4940204432e-05
-0.000149418586295
-0.0116932942903
0.0116431677263
0.000880119866509
-0.000147614308785
-0.00015816918672
-0.000144651373485
-0.000161639806367
0.000466307717942
0.0501097436287
-0.000147914187643
-0.000161862053056
-0.000160856921024
-0.000149826086244
0.00047829835591
-0.0498931123439
0.00080572689803
0.000127735320136
0.012014508577
7.65869740728e-05
-0.0120372143506
0.0118608097824
-0.000132668760378
0.000181296531551
-0.0119202537275
0.000119193139152
0.0118481585636
-0.00011715407886
0.000184524113431
-0.000137022907328
-0.011923954834
0.000145423887513
0.00108329071418
-9.74423534868e-05
-7.01163707928e-05
-9.73710696149e-05
-7.31707875194e-05
0.050587965788
0.000274531397439
0.0503706441694
-0.000125520461185
-0.000132755759508
-0.000129831072617
-0.000126393520907
0.000365692419148
-9.6551919254e-05
-7.85332797081e-05
-9.9115770683e-05
-7.8473141186e-05
0.0505979484623
0.000899013206799
0.000309736123477
0.000167686490516
0.0117944144843
0.000123141972736
-3.84374870008e-06
5.6380442278e-05
-0.0116681377678
0.000126413306478
0.0116171520762
0.000157479103264
-0.000100116044497
0.000165046865147
-0.000146224711371
0.0117720060209
0.000151284595725
-1.84385802891e-05
6.35895815972e-05
-0.000139790826762
-0.0116254915946
0.0115688221857
0.000162025100863
0.0117729043721
0.000162234976792
-0.0118544715015
7.23271460131e-05
-0.0116135577368
0.0115481779156
-1.481274487e-05
0.000159257924806
0.00184526616188
0.000118222140776
0.000147161737781
0.000121802967504
-0.00180773735453
-0.00310480626379
-0.00137589046178
0.00391895707982
-0.00264743002872
0.00060005755991
0.000131473985931
9.67674964209e-05
0.000108246227771
0.000587981685863
0.00285046878533
0.00214868424942
0.000139897223806
0.000136420567964
0.000147511023697
-0.00253159367607
-0.0054251943832
-0.014175216394
0.0035803026595
-0.00309351571302
-0.0075616296998
0.0148400429359
0.00230983706985
-0.0102934615364
-0.00173308366584
-0.00788708990723
-0.0161463127642
-0.00151931769007
0.0158245982302
-0.0141026156518
-0.0017120540532
-0.00119866476827
-0.00804107399739
-0.00688022461767
0.000349852280465
0.00797750449663
-0.00775655066539
-0.00639092292276
0.00155874281091
0.011023664485
-0.0112200683838
-0.00488567078545
0.000981733727849
-0.00543147503026
-0.00776919721189
0.00312816351206
-0.000187574196059
8.32482531084e-05
9.94756907765e-05
8.46862187248e-05
0.00196944495182
0.00492889091666
-0.0132629342306
9.55384757654e-05
7.88319200843e-05
7.96015002931e-05
0.0112511705647
0.00169556322667
-0.000220596292499
0.00397907899641
0.000836022465094
0.000112995111015
0.000101379257454
0.000107972434468
-0.00322991715231
-0.0153399109952
0.00165844781949
0.000103736157965
0.000120808081849
0.000118144231962
0.000720122351001
-0.0170528022147
0.0044758498612
0.000119322910194
0.00012846614383
0.000121188606768
-0.0141291715842
-0.000340362617975
0.0136465150198
7.29992530533e-05
-0.0143908939152
-0.0148454858041
0.00157362970371
0.0134033935472
-0.0155360324481
0.00209482281625
0.00428705095108
-0.00276136483031
-4.17196735516e-05
-3.56600989657e-05
-2.60132756962e-05
-0.011412528326
-0.0016118737691
-0.0180060780232
-0.000249872154114
8.76877539801e-05
7.77278358543e-05
5.10698073515e-05
-0.00147866590159
0.00590329575795
-1.50648776006e-05
2.7183163016e-05
7.81373997352e-06
-0.0181582229019
-0.0107571258985
0.000925883634888
0.00287338323659
-0.00707169118481
-0.0121842415266
0.00744165121607
0.0112564810841
-0.00969497669714
0.00361232055733
0.000661216079534
0.000129838563559
0.00013280672475
0.000130321925597
0.000713950311255
-0.0271729387374
0.00012260260538
0.000116398624952
0.000121367074459
0.0278057015568
0.00178912275915
-0.0127987202654
0.0106827571543
0.000490162133774
0.000983775445248
-0.0138101084886
-0.0127600227465
0.0128279510548
-0.000933994602953
0.00586104578332
-0.000791833109612
4.00768870063e-05
8.95358527397e-06
5.20988369107e-05
-0.0219231533647
-0.0260733402581
5.37982584481e-05
0.000107700862626
8.45755951822e-05
9.18682891744e-05
-7.45859834157e-05
2.03111698988e-05
4.83213068821e-05
5.54868791566e-05
-0.0250540704867
0.00477389012456
-0.0114065523657
0.00521071528573
0.00837680244954
-0.00753966899422
-0.00940230973109
0.00103308679482
-0.00383381434491
0.00248289103301
0.0123153392835
-0.000104520129377
-9.68395193617e-06
4.76198601744e-05
-0.0123447792091
1.03115855332e-05
-0.0123145021141
0.0122925132589
3.1871791753e-05
-1.79365579241e-05
9.8877149777e-05
3.61573072346e-05
-0.0119762674265
0.000138646085029
-0.0119887438466
1.83562849159e-05
0.0119770694243
5.749940067e-05
0.0122924999386
-1.45611197694e-06
-0.011987889662
2.90556474899e-05
-0.0123463744274
0.0123247515942
7.64579312666e-05
-9.7203738124e-05
-0.0123494970343
-9.74290229336e-05
-0.0123367577852
0.0123252802394
0.000125476326246
0.000130520184077
-0.0119895766288
0.0119795174932
9.47789787135e-05
-1.15791417722e-05
1.49106707103e-05
-0.0120004884152
0.0123052278087
0.00010521160924
-0.0123659385146
-0.0119913981521
-0.0122949852194
0.000124986946562
-0.000161252754852
-7.82750951312e-05
0.0122851861335
-0.000103397580318
0.0123128274098
0.000141487775718
0.000141794204403
0.0119625386427
-2.56312286463e-05
0.00015787419549
-7.14152641166e-05
7.64853977867e-05
0.0119491234646
-6.32902890453e-05
0.000166367938021
0.0123089364813
-5.40632312869e-05
0.0119315513783
-0.000123900010548
0.0123758902359
-6.95500174954e-05
0.000130802871214
-0.0123919351227
-0.0123548891055
0.000136959396128
0.0123504051402
7.85197950606e-05
1.92670724126e-05
-0.0120005773874
9.71561855929e-05
-0.012015760522
5.0363892862e-05
0.0120065364187
-0.0123782638279
0.00014263481697
0.0123706385662
3.30003282021e-05
-0.0120143345771
0.0123926538128
0.000138709984086
-7.553257279e-05
-0.0124045994906
-0.000149807083856
-0.0124098758828
0.0124101352007
0.000155939500149
0.000102584719233
-0.0120285549428
0.0120178446589
7.49787295875e-05
-3.55138465002e-05
-0.0120412979814
3.73394294727e-05
0.0123894496047
-0.012418766954
0.00014352492642
-0.012026864156
-0.00018291296887
-0.0123659613507
-0.000146593396285
0.0123722186173
0.000190045252066
0.0123447602168
0.000159478293785
0.000154984087417
8.17812625773e-05
0.0119466819975
0.000109830845152
0.0119931045029
6.15498411661e-05
0.0123487180458
0.000167169246017
0.0119580471186
8.09283166446e-05
-0.00020140682366
0.0124006427435
-0.000149514232457
0.000213098396819
-0.0123721307108
0.000227361011819
0.0123969063478
-0.000216107047171
0.000152547808119
8.95219220422e-05
-8.61962431571e-05
0.000155394544667
-0.0119194464807
0.000106774461351
0.0118699386026
-0.000184977207817
0.000237811188107
0.012430265133
8.73268591534e-05
-0.0123878974287
0.000194375100553
-0.000153501013747
0.0123979010147
-0.000174457858782
0.0124097374838
0.000179639542433
0.00011680179445
0.0120011045968
0.000160293098602
-8.43664673831e-05
0.0119686211462
8.80913582556e-05
0.0124222508097
0.000199811466704
0.0119625450483
0.0124283920035
0.000216795462659
-0.000159195432342
-0.000237596275323
-0.0124536165366
0.0124865784819
0.0002412580728
0.000167733123287
-0.0119200273372
0.0118714380476
0.000165842844702
-9.18376697669e-05
9.75132621189e-05
0.0124599350701
0.000222014056213
-0.000288541669496
-0.0124812856481
-7.33358999606e-05
0.0125057630835
0.000297889572483
3.94140067984e-05
0.0124361797957
0.000260906026862
7.82697261027e-05
-0.000253600314936
5.74593995106e-05
0.000152039958489
0.0117524334928
-0.000168850015116
0.000139428405897
0.0118063162764
0.000121213004196
0.012464401951
3.14946716367e-05
-0.000291079786775
0.000268271443349
8.08894082931e-05
0.0117667594449
0.000138731144546
-0.000328109236812
-5.9884052494e-05
0.012566696425
0.000332807938306
-6.03312589613e-06
-0.012535351058
0.000348362345408
0.0126113480441
-0.000361721330571
-5.20368394529e-05
4.65793928537e-05
0.000177579151483
-0.000208135187765
-0.0117004951682
2.90891844772e-05
0.000175269800019
0.0116607292062
-0.000336130944608
-1.65478539724e-05
0.000157372794756
0.000356954433116
0.0126258801018
-3.8966723105e-05
-0.0125129845402
0.000285293980892
-0.000106831197555
0.0125457541588
-0.000259562762251
0.0125368891966
0.000261659703969
0.000157322721582
0.0118073374277
0.000132454885464
-0.000127560898982
0.0117632379032
0.000120643521483
0.0125730984395
0.000284684193777
0.0117621198044
0.000308138216888
-9.15167587516e-05
0.0125945814112
-0.0126157634292
-0.00033145296557
0.000321993337525
0.0126422274448
-0.0116982454221
5.51739758126e-05
0.0116539108653
0.000111392460749
-0.000137627540377
0.000123357854512
0.000300889658293
0.0126357610742
-0.000197471989452
-0.0124478134034
-0.000169434252501
0.0124627950647
0.000195705145734
0.0124302957379
0.000180096605095
-0.012429198205
0.000165106209172
9.60273049399e-05
0.0119680945308
0.000133146280997
0.0120206962417
-0.0120477027075
8.48934054363e-05
0.0124447022785
-0.0124468145091
0.000180958758168
0.0119735671906
0.000102716997526
-0.000215675825296
0.0124923559773
-0.000171357795193
0.00020988356302
-0.0124742252017
0.000230947620324
0.0125078318649
0.000167680670171
0.000107641423305
0.000187414876093
-0.0119216733659
0.000128820188829
0.0118574952465
0.000223358742799
0.012525959083
0.000118600132401
0.012506325483
0.000206966643162
-0.000172866016432
-0.0124783720805
-0.00021755603038
-0.012518617175
0.0125483292188
0.000210615511649
0.000186338336355
-0.011920152962
0.0118483273526
0.000172233840412
-0.000125889995189
-0.0119866899727
0.000132799667407
0.0125378019744
-0.012491384029