/*--------------------------------*- C++ -*----------------------------------*\
| =========                 |                                                 |
| \\      /  F ield         | OpenFOAM: The Open Source CFD Toolbox           |
|  \\    /   O peration     | Version:  v1906                                 |
|   \\  /    A nd           | Web:      www.OpenFOAM.com                      |
|    \\/     M anipulation  |                                                 |
\*---------------------------------------------------------------------------*/
FoamFile
{
    version     2.0;
    format      ascii;
    class       volVectorField;
    location    "15";
    object      U;
}
// * * * * * * * * * * * * * * * * * * * * * * * * * * * * * * * * * * * * * //

dimensions      [0 1 -1 0 0 0 0];


internalField   nonuniform List<vector> 
28582
(
(0.80953567735 0.00445749008162 -0.000519688567803)
(0.81123795368 0.00359534355877 -0.000638250237086)
(0.810203943068 0.00480407539107 -0.00122640079476)
(0.81138582447 0.00354152161082 -0.00072214395472)
(0.810316139666 0.00444973392289 -0.00180271828342)
(0.812769096421 0.00349493482227 -0.00100016743724)
(0.815126372582 0.00526797071103 -0.00266767133357)
(0.815643510389 0.00462074929569 -0.00276985945631)
(-0.349306016625 0.0496707153904 -0.00253041619562)
(-0.421179426456 -0.102451843896 -0.00870509874006)
(-0.0278328252796 0.0709768719947 -0.198435767593)
(0.815367326965 0.00488193708095 -0.00291415674751)
(0.741528890534 0.00258701856771 -0.00240896416759)
(0.740343610544 0.00135042740891 -0.0010103858012)
(0.816176471129 0.00423100541847 -0.0017664923784)
(0.815424933575 0.00389905689931 -0.00160748264935)
(0.739004950009 0.000970798701798 -0.00123958554411)
(0.814906578206 0.00336439937508 -0.00205085242022)
(0.814095029481 0.00326391867524 -0.000928330531798)
(0.808495720304 0.00718726816427 -0.00107913249346)
(0.812380369062 0.00207873738561 -0.000410824119202)
(0.812334444927 0.00137742972238 -0.000592966042318)
(0.809143504448 0.00720129966682 -0.00148958089463)
(0.812787293966 0.00244368983374 0.000487021387802)
(0.812463916151 0.00156498776707 0.000903845266569)
(0.809058856992 0.00728253756258 -0.00288559624844)
(0.813972425716 0.00213817995323 -0.00055026694357)
(0.815073030086 0.00667766014829 -0.00421517033849)
(0.816669168514 0.00364778760413 -0.000301227817915)
(-0.408335716826 -0.111100166971 -0.00605630458167)
(0.0850059092081 0.168697439174 -0.180770866795)
(-0.098837114055 -0.203962588695 -0.171655515752)
(0.815787584734 0.0059780407551 -0.00370269270258)
(0.815328448682 0.00614556220797 -0.0035063421732)
(0.731288248963 0.0053632704623 -0.00471640045957)
(0.734518829899 0.00435148401406 -0.00569270368037)
(0.815153775698 0.00667591150533 -0.00562660725492)
(0.816980824802 0.00302335564219 0.000157757866894)
(0.81572688118 0.00383241673766 0.000463867323539)
(0.815861231431 0.0028946570469 0.00128604817085)
(0.815028277015 0.00297770102655 -0.00157336658013)
(0.736215503299 -0.00226156934213 0.000643432224264)
(0.813960700447 0.00272182861808 -0.000669107751257)
(0.813192906789 0.00299854181356 0.000424030948533)
(-0.399583350737 -0.0377543966076 -0.00122305944181)
(-0.212318496791 -0.069767719216 -0.00170995854613)
(-0.098370389057 0.123853820049 -0.0147919962747)
(-0.0849816914474 0.111522583435 -0.00760033551906)
(-0.427120533544 -0.076442523702 -0.0058192418304)
(-0.116924281096 0.115386171701 0.00105010975268)
(0.815853311138 0.00576411040534 -0.0027029930806)
(0.815037272773 0.00533864297881 -0.0011909650401)
(0.741409721245 0.00198475698615 -0.00122703733273)
(0.743405884231 0.00348003170324 -0.00168152079028)
(0.815511104248 0.00552090272272 -0.00241442075906)
(0.743294630547 0.00257512319817 -0.000743297538286)
(0.815337624933 0.00552955028414 -0.00136549664512)
(0.814466226116 0.00471563940715 -0.00079451080439)
(0.814363439722 0.0048358693884 -0.00125939285516)
(0.740640859731 0.00156530987042 -0.000508491272336)
(0.742138739161 0.00168088188113 -0.000852070287131)
(0.814183849328 0.00465191069059 -0.00114124410679)
(0.742609031219 0.00207200848383 -0.000244108866277)
(0.814767401583 0.00509770209669 -0.000852932689591)
(0.814527386908 0.00406672980332 -0.00228715779552)
(0.81441883595 0.00447118990751 -0.00165831202564)
(0.738354717616 0.000623694157582 -0.00134349321726)
(0.740884666809 0.0016652612696 -0.00106304750541)
(0.814270195295 0.00445482143906 -0.00150617801041)
(0.739954321314 0.00175338526641 -0.00140909238538)
(0.814825694603 0.00409662705937 -0.00235092358795)
(0.815307634711 0.00341664495058 -0.00198870062869)
(0.736345634354 -0.000223314230986 -0.00101064534009)
(0.737497299128 0.00174785148973 -0.000875518708821)
(0.814860333606 0.00377352868107 -0.00238535495735)
(0.737049410114 0.000270738785443 -0.00156380911294)
(0.738681177303 0.00168035622744 -0.00153009723538)
(0.815006802706 0.00378739259792 -0.00237564028043)
(0.813713527848 0.00394086495925 -0.00068367000488)
(0.74009336157 0.00360644922756 -0.00124787513543)
(0.740946350772 0.0040114786204 -0.000739828096686)
(0.814233247856 0.00354972574575 -0.00130935376318)
(0.741869418153 0.00388241461271 -0.00146121611596)
(0.814110684173 0.00406139506436 -0.00130403763648)
(0.741128452316 0.00335270362639 -0.00148152402732)
(-0.344385951948 0.0145064987494 -0.00862510850543)
(-0.157079395958 0.166918069721 0.0737431350417)
(-0.26851819421 -0.0362672873883 -0.0133814343936)
(-0.349276947584 -0.0467654901172 -0.00587141585969)
(-0.255872980992 0.15359374129 0.0826324942692)
(-0.241417002048 0.154633226866 0.0698076362337)
(-0.265967971663 -0.104083165981 -0.000713220314757)
(-0.0558241918723 -0.0238662293655 -0.0386197912569)
(-0.0544912890977 -0.00732689304221 -0.0148827015549)
(-0.290805011373 -0.104828468807 -0.00243722754495)
(-0.0308799789837 -0.0316006726827 -0.0395473116409)
(-0.373230304772 -0.0947315147262 -0.00690395306571)
(-0.00573490808528 -0.0098364287987 -0.0232275244426)
(0.814293127209 0.00620490348611 -0.00652578598248)
(0.813719192635 0.00568863933509 -0.00519328064579)
(0.732739648745 0.00509974072442 -0.00577747069635)
(0.732635114215 0.00485442342625 -0.00487426773374)
(0.814495135553 0.00563445476964 -0.00625536481454)
(0.813493859706 0.00612566496065 -0.00560426706688)
(0.733864301141 0.00434687154164 -0.00588362289179)
(0.815086151662 0.00639884508642 -0.00630783618445)
(0.815840477503 0.00574452019612 -0.00526354661664)
(0.734360942314 0.00460773394969 -0.00633161987433)
(0.735173305408 0.00293243600561 -0.0056941830945)
(0.815053208716 0.005614550497 -0.00608866201155)
(0.815970586081 0.00644926718445 -0.00531473579271)
(0.735131234817 0.00337956123369 -0.00640202342609)
(0.738162644717 0.00352642342721 -0.00435127115494)
(0.73828498443 0.0028519064835 -0.00312455269093)
(0.816050413672 0.00647118844034 -0.00404341398647)
(0.815310010651 0.00690309635413 -0.00590725914168)
(0.736885162562 0.00280216302801 -0.00422066816564)
(0.816273720573 0.00681152730028 -0.0045267305107)
(0.736818987441 0.00322823018771 -0.00521676393407)
(0.815363518158 0.00331826007912 -0.0014622216476)
(0.735981935203 -0.000810638906905 -0.00047660151967)
(0.737298916553 0.00155424663427 -0.000158749318544)
(0.814821758211 0.00224536406537 -0.00076624956927)
(0.735930177496 -0.00121264199509 0.000507902502973)
(0.815462861177 0.00293129460804 -0.000523768499284)
(0.73681537228 0.00107422854831 0.000792717105248)
(0.814974029056 0.00211314168436 -0.000225522195945)
(0.815604647634 0.00233458592641 0.000442742852645)
(0.736064763971 -0.00157815595805 0.000750222406195)
(0.737112619276 9.401017391e-05 0.00183958693777)
(0.815434962205 0.00272614394936 -6.92254412126e-05)
(0.814975876724 0.00150585682647 0.000457800533457)
(0.736705561169 0.000780049487773 0.00153414081927)
(0.813234091986 0.00329786574343 0.000324950912877)
(0.813454511056 0.0036626298408 -0.000408296697284)
(0.739648232694 0.00340105277514 -0.00100207640737)
(0.740369041495 0.00361976586792 -0.000250189545657)
(0.740408219913 0.00339500371112 0.000264436293206)
(0.813715542302 0.0021118022614 -0.000123518319502)
(0.73925515845 0.00311258672129 -0.000793003085535)
(0.740179730668 0.00303336550224 0.000337050214526)
(0.740371449228 0.00267159055874 0.000288172015908)
(0.81314296621 0.00242942090516 0.000641045515058)
(0.813879919449 0.00174863616673 0.000264078924522)
(0.739117137453 0.00212254485782 -0.000455860270444)
(0.813825620714 0.00101369345715 0.000594436258516)
(0.738891853479 0.00256938971458 -0.000432802995404)
(0.813899776462 0.00111623337137 -0.000555797396376)
(0.817370192776 0.00256851932566 -0.000195491242892)
(-0.314790135219 -0.0456478652097 -0.0083189305139)
(0.0705549323193 -0.0321181935488 -0.202530113994)
(0.815794776976 0.00578644379855 -0.00276921592918)
(0.738912557762 0.00196875380985 -0.00230722515561)
(0.816099527692 0.00219099959409 0.000893120953062)
(0.816290583233 0.00131689827718 -0.000592378609912)
(0.736521220626 -0.00371639126294 0.000516951399992)
(0.740398412202 0.00230269214856 7.13220598671e-05)
(0.741195631188 0.00129209847048 -0.00139882491886)
(0.816431061259 8.85405901337e-05 -0.00251548251589)
(0.816753797174 -0.00102961563661 -0.00230452310876)
(0.740864690499 0.000930046508475 -0.00221502819259)
(0.738041323995 -0.000343460873529 -0.00222932547933)
(-0.438860566949 -0.00726262567605 -0.00210886081705)
(-0.298457681959 -0.0849633997382 -0.00501428268732)
(-0.258407189576 -0.0265494547884 -0.00654973024737)
(0.0740020466591 0.0493558550562 -0.0283483531706)
(0.0613843098639 0.0172514807198 -0.0316528106908)
(0.0935130015936 0.0221078452149 -0.032051709504)
(-0.179142771056 0.0465965256708 -0.00457990472906)
(-0.116363214929 0.0877515910415 -0.000768654350479)
(0.815734465383 0.00658976511516 -0.0023177999133)
(0.815915079601 0.00626571412654 -0.00328772067448)
(0.737577838216 0.0016428060561 -0.00311548916853)
(0.738829302873 0.00123195602946 -0.00126088939191)
(0.816136908571 0.00669686767595 -0.00386011388741)
(0.737533280057 0.000831263496119 -0.00181123581566)
(0.815639609827 0.00599419135049 -0.00172266080626)
(0.815234418504 0.000522094741463 0.000264105747059)
(0.815954498359 0.00184495643463 0.000471995644932)
(0.736930108194 -0.00471846421211 0.00063533676319)
(0.737333351967 -0.000754327737466 0.00158665286815)
(0.816154082507 0.00123488228924 0.000721223127934)
(0.815078346337 0.000998384568731 0.000459251466923)
(0.737554597394 -0.00154092021001 0.000937679449708)
(0.814106835486 -6.67776571055e-05 -0.000152148274686)
(0.813252987239 0.00196054531264 0.000405156373826)
(0.739014906628 0.00147463719075 -0.000600666459554)
(0.740803684655 0.00188051941566 -0.000324556930425)
(0.813977942189 0.000470681292545 0.000265448862347)
(0.739436125581 0.000744962532499 -0.000907044843742)
(0.813588616391 0.00130231006533 -0.000189150911523)
(0.814461050985 -0.000595022101471 -0.000471322281118)
(0.814298128602 -0.000109980036588 -0.00148187876918)
(0.740038566633 -0.000225405285271 -0.00165307877957)
(0.740732207986 0.0016600652085 -0.000811792289179)
(0.81490298037 -0.00108501776538 -0.00108268656134)
(0.739583519796 0.000166237252699 -0.00117434190954)
(0.813843162145 0.000581639120173 -0.000518133419592)
(0.815045241588 -0.00181596262408 -0.00183822920988)
(0.814606122597 -0.000681005465029 -0.00193630077629)
(0.739885124261 -0.000817459227539 -0.00223100777608)
(0.740390430773 0.000515393458626 -0.00221651685007)
(0.815118661459 -0.00150101470545 -0.0015558406498)
(0.739470074167 -0.00100835560217 -0.00243343174926)
(0.814712186558 -0.00117989410225 -0.00221132637561)
(0.814628187376 -0.00202454932665 -0.00180313067822)
(0.814005776189 -0.0017594273316 -0.00204624261011)
(0.737361436844 -0.00201704797092 -0.00243694598253)
(0.739100796728 5.33848218319e-05 -0.00206621399906)
(0.814199003196 -0.00231655603856 -0.00164276442798)
(0.738470725232 -0.00136301191902 -0.00210882232485)
(0.814362354202 -0.00147635803295 -0.0020673115631)
(0.789458403228 0.0113685728632 -0.00791192966416)
(0.795048227164 0.0127940802295 -0.00861485781498)
(0.801641379174 0.0178895843816 -0.00652523855768)
(0.803695777888 0.0137938782103 -0.00581943340765)
(-0.11801505625 0.0404042229658 -0.00991382997864)
(-0.17682974476 0.0651892323937 0.00924799298826)
(-0.353619732332 0.0423169486306 -0.0123248911611)
(-0.361738396434 0.0973263851494 -0.0054448217367)
(-0.473986415531 0.0462553062506 -0.000226499977103)
(0.0777133595408 0.124075593793 0.155699880804)
(0.117103749635 -0.309470468185 -0.0950243515116)
(0.141744290342 -0.0762681245589 -0.0861256728381)
(0.279975612749 -0.0731115275106 -0.376812449542)
(0.131844012249 0.00930304357975 -0.0554925903768)
(0.485039721514 -0.0539456251683 -0.0569719717039)
(0.786171619105 0.00100584821505 -0.00723668671732)
(0.787114646073 0.00457383481225 -0.00689800449153)
(0.766704352754 -0.000914703894364 -0.00565924733078)
(0.768356124437 0.00209460332257 -0.00556876160553)
(0.785047593529 0.00801620794358 -0.00686736418194)
(0.767567728101 0.00290379892783 -0.00631324328541)
(0.788974805922 0.00760731966078 -0.00602411239635)
(0.791800285091 0.00939067623625 -0.00570068226205)
(0.768196644916 0.00206357835045 -0.00439498744484)
(0.7706441736 0.00360891211248 -0.00417217369825)
(0.78892716252 0.0164245133898 -0.00476095696909)
(0.792411545724 0.0126357406199 -0.00825962489246)
(0.794626779577 0.016275773446 -0.00696778787887)
(0.768014092988 0.00286179974874 -0.00560286057879)
(0.760646166509 0.00686729045283 -0.00918774162447)
(0.769762041972 0.00432924534629 -0.00522796626197)
(0.762007300511 0.00685664327891 -0.00927489666634)
(0.799046281362 0.0212006549254 -0.00343584473841)
(0.804228249791 0.0248403402478 0.000169785479906)
(0.758131372514 0.00893838002742 -0.00885537313382)
(0.74682260038 0.0142222523925 -0.00300908917534)
(0.758678844082 0.00728411531589 -0.00954347496311)
(0.746013983265 0.00863960798593 -0.00560927273489)
(0.79809495614 0.015488232664 -0.0086724615755)
(0.799933040387 0.013556003802 -0.0087102666094)
(0.770138385092 0.00466579505364 -0.00557957250726)
(0.761190166386 0.0073149404849 -0.00909840539943)
(0.760764429603 0.00917947058737 -0.00937284389984)
(0.806114674848 0.0193367654607 -0.00364727000374)
(0.803217389043 0.0153587054499 -0.00648648337891)
(0.807188199469 0.0159293661263 -0.00414238029844)
(0.757690549815 0.0075581758992 -0.00906394276825)
(0.74402445039 0.00796132007168 -0.00414787277223)
(0.75616739811 0.00983254484241 -0.00896998180609)
(0.741109252665 0.00947872000191 -0.00424255593451)
(0.756412388645 0.0102615512899 -0.00923614227552)
(0.74028352158 0.00987987216117 -0.00490102598647)
(-0.00204081703457 0.041518469543 -0.0135695668388)
(-0.0214919569652 0.0218099276667 -0.0119084110821)
(-0.064842417931 0.042663100265 -0.012900935207)
(-0.252242175044 0.117327151461 0.0979897922596)
(-0.175735303551 0.104314345698 0.0406350148088)
(-0.267756481788 0.000737711932425 0.0905869402256)
(-0.234111127776 -0.0200990460231 0.0305175172476)
(-0.138065460767 -0.129904769787 -0.0205207497588)
(-0.135968668412 -0.15956620675 -0.071747054216)
(-0.195304422703 -0.101683374492 -0.0559863982785)
(-0.174487376177 -0.113971696156 -0.130715272207)
(-0.0894427778745 -0.00217892993989 -0.0122022112095)
(-0.199147134326 -0.00534305701767 -0.011377728644)
(-0.147314229268 0.0573390920916 -0.00448447233761)
(-0.224801015049 0.0309867214083 -0.00951456839249)
(-0.256880736312 0.0651359704289 -0.00723501150842)
(-0.225848683374 -0.0429265216124 0.0643042980081)
(-0.24979003253 -0.0327390173492 0.0299316808189)
(-0.231063280352 0.027296378613 0.0642718879467)
(-0.271826768517 0.0337961736784 0.0280409467166)
(-0.192224572223 0.044695433635 0.0180222787901)
(-0.278277309844 0.087995255287 0.00351316833799)
(-0.290797034835 0.0861151741437 0.0132838278911)
(-0.202016225694 -0.0506640028813 -0.0384866215984)
(-0.106720822655 -0.0370967285869 -0.125486535457)
(-0.208554234454 0.0795979258031 -0.0188995432903)
(-0.147199451145 0.119851923686 -0.0751767100169)
(-0.361965293569 0.0745570355322 -0.0110442747105)
(-0.435560723098 0.0451091306628 -0.00892573352093)
(-0.192735769969 0.019151682227 0.0927507659958)
(-0.212388883028 0.036516932851 0.0516127094468)
(-0.202320079407 4.47035540133e-05 0.0508851527257)
(-0.357506966763 0.0997188988805 0.00625792641467)
(-0.424455172421 0.0757226546035 -0.00567379246713)
(-0.406147416603 0.0864230014887 0.00215232906109)
(-0.218247267401 0.139616342488 0.00933260894744)
(-0.118679684727 0.203297858811 -0.0235232120915)
(-0.189745888295 0.0463265924906 0.0242791726065)
(-0.0816354063395 0.0908419254554 0.0114491433423)
(0.789407494092 0.00188665497059 -0.00690809959903)
(0.788079399855 -0.000772661040193 -0.00824429437463)
(0.766507674428 -0.00178282696908 -0.00358383657878)
(0.767547874133 0.000571162467889 -0.00614251313305)
(0.788215285457 0.00210170102707 -0.00883070442601)
(0.76727709563 -0.000591810121337 -0.00388929370404)
(0.789454638219 -0.000658599704776 -0.00655258545552)
(0.789933079444 0.00391044789927 -0.00660545843214)
(0.789484645939 0.00722446235535 -0.00770018736509)
(0.7678780412 0.00149427476916 -0.00579030007163)
(0.767863335918 0.000988927905595 -0.00351005911363)
(0.788712241133 0.0048946302297 -0.00841363709244)
(0.790940515022 0.00550623509652 -0.0066323034173)
(0.767323900599 0.000347508522228 -0.00360042917167)
(0.787684334109 0.00645276984887 -0.00998162788731)
(0.789338255329 0.00765087396315 -0.00880970338724)
(0.766680932372 0.0020305162621 -0.00652819645289)
(0.766344290855 0.00483366085393 -0.00866357389295)
(0.788103431768 0.00529069456255 -0.00890343887416)
(0.788668263974 0.00928453906318 -0.00952582609917)
(0.765419766475 0.00396454345038 -0.00849893963858)
(0.793052021745 0.00807314315343 -0.00520610549847)
(0.790894897828 0.00837450644848 -0.00731874285444)
(0.768037072219 0.000769732771937 -0.0028148502738)
(0.768836242295 0.00294730610635 -0.00373044214541)
(0.791869010929 0.00756296877874 -0.00558730489157)
(0.792189098096 0.00886685759692 -0.00694078242183)
(0.76903937081 0.00181000444927 -0.00210988861579)
(0.7940658857 0.00856456669292 -0.00529736679671)
(0.794453214069 0.00981536109004 -0.00723258994854)
(0.769538221762 0.00346820505209 -0.00416954775416)
(0.770599251758 0.00238277135361 -0.00236460393741)
(0.793234064291 0.00925183861005 -0.00703963082567)
(0.79508101748 0.0090403952433 -0.0053420187262)
(0.769923950168 0.00231219059837 -0.00261523881328)
(0.792010989883 0.0119066489388 -0.00981934859518)
(0.790424490119 0.0098342040497 -0.00763827784935)
(0.766384847964 0.0046974263515 -0.00785047009432)
(0.76863696246 0.00381383535318 -0.0048271476626)
(0.790633458468 0.0114917580043 -0.0101043649251)
(0.79174011474 0.0104191171556 -0.00727881896553)
(0.767032431536 0.00536316862421 -0.00706981071823)
(0.792831152947 0.0132514972267 -0.00930385927915)
(0.792800770201 0.0144022560086 -0.00961448480203)
(0.764789003863 0.00542237499249 -0.00860313124702)
(0.76155786554 0.00703425110255 -0.00876891708578)
(0.791188525063 0.0125312327963 -0.00954772100114)
(0.794764120406 0.014957070368 -0.00996734828547)
(0.765410321507 0.00567473922692 -0.00801940242284)
(0.793406791287 0.0122918732065 -0.010170398476)
(0.794421466754 0.0114176836564 -0.00773094804328)
(0.76928494589 0.00416327135112 -0.00543560757758)
(0.768114505752 0.00547382337252 -0.00751129181147)
(0.793069635431 0.0108598281393 -0.00744456196238)
(0.794825760176 0.0127306440655 -0.0105515651957)
(0.767490529102 0.00530655196382 -0.00737894058943)
(0.794517680699 0.0138675416954 -0.00976087831671)
(0.798378125043 0.0155058393889 -0.0114814646893)
(0.761799742662 0.00680315956593 -0.00908497094751)
(0.765316305515 0.00607682308408 -0.00850473157152)
(0.796751966996 0.0153668111713 -0.0109164600227)
(0.796013935401 0.0141793445661 -0.0102545788349)
(0.765318795764 0.00569585657245 -0.00850927619967)
(0.799483928558 0.0189507854736 -0.00460474653724)
(0.795109389913 0.0168155532001 -0.00872603032761)
(0.753250393749 0.0102719727565 -0.00596923067563)
(0.758823316849 0.00826122977601 -0.00901371106746)
(0.797149280338 0.0188524787257 -0.00361732799419)
(0.797101130012 0.0170420442105 -0.00912437536244)
(0.754134872969 0.00937516218725 -0.00667712332838)
(0.802602433629 0.0214048617109 -0.00416296249419)
(0.803153144351 0.0231686692299 0.000687960154632)
(0.750463839614 0.0124045472034 -0.00517075851179)
(0.746847230233 0.0123012602637 -0.00443983768083)
(0.800417831375 0.021770992749 -0.00301818924543)
(0.751095411447 0.0109815775791 -0.00578316132997)
(0.804868472318 0.0227538450839 -0.000717536837521)
(0.801688355958 0.0188737001642 -0.00752216155972)
(0.800284909808 0.0169076743659 -0.0107202374085)
(0.758792376718 0.00739082405917 -0.00940031392524)
(0.754014191434 0.00795519923348 -0.00831643247338)
(0.798691726625 0.0170182959442 -0.0103484288554)
(0.803269408005 0.0185721936049 -0.0087248044286)
(0.753847340061 0.0084291284389 -0.00776204365685)
(0.80440587802 0.0206458047058 -0.00718139506842)
(0.80746303884 0.021110489271 -0.00497047372917)
(0.746604588769 0.0103441658967 -0.00520300530654)
(0.75073447938 0.00826233656587 -0.00802155283685)
(0.805727455828 0.0196996378515 -0.00827083261215)
(0.751050716356 0.00926688128339 -0.00710254817508)
(0.806306513418 0.0221382562391 -0.00392939695231)
(0.797217488003 0.012573998171 -0.0113850034594)
(0.795628273759 0.0115255743986 -0.00841368314929)
(0.767919332764 0.00597913871464 -0.00765924900696)
(0.770616114807 0.00517319183766 -0.00592969821909)
(0.796117863307 0.0127252359288 -0.0111043703142)
(0.796662160782 0.0115713754093 -0.00878152948846)
(0.768268166572 0.00637666689599 -0.00796664125865)
(0.798481302242 0.0136619879223 -0.0110457291784)
(0.799612474996 0.0151429038877 -0.0121863809156)
(0.764978571102 0.00658157746697 -0.00835751911439)
(0.76109816686 0.00801552055742 -0.00938514237981)
(0.797365040519 0.0140238919417 -0.0107822996431)
(0.800758006437 0.0146386946861 -0.0125786068814)
(0.765092081017 0.00732572873401 -0.0085801997519)
(0.799347793737 0.0134236085013 -0.0111164440589)
(0.802274412563 0.0137891680363 -0.0125318392788)
(0.760653206339 0.00848307905802 -0.00948670570393)
(0.765553851799 0.00838051441076 -0.00873060519268)
(0.8015558386 0.0142017167238 -0.0124682437976)
(0.800121603088 0.0131595917528 -0.0112599761836)
(0.765205657423 0.0078171704071 -0.00881161985408)
(0.805614379411 0.0165965782836 -0.0101808634454)
(0.801739895131 0.0164335655944 -0.011005663099)
(0.752476433816 0.00794889526484 -0.00785223949353)
(0.757188517623 0.00823930903736 -0.00933179346675)
(0.804666983374 0.0177802076808 -0.00950279798341)
(0.802946149415 0.0156326874311 -0.0111394799152)
(0.752041514794 0.00862634282054 -0.00831354031364)
(0.807604342484 0.01722899176 -0.00874993903829)
(0.808688675804 0.0197439285296 -0.00533682149267)
(0.749382567466 0.00784421028105 -0.00735293886877)
(0.743373893868 0.00793568591436 -0.00476570581474)
(0.806717463921 0.0186111498292 -0.00867229140469)
(0.74851514629 0.00825837533513 -0.00760899043139)
(0.809414903076 0.017887060034 -0.00579607348521)
(0.806211013823 0.0156057080827 -0.0102347022114)
(0.804143172042 0.0142740872721 -0.0109331759096)
(0.756427925709 0.00890151088543 -0.00915403301091)
(0.750634264085 0.0101130992847 -0.00777762531276)
(0.803621498951 0.0148198048814 -0.010761137552)
(0.806580083327 0.0146774563708 -0.0102883339862)
(0.750996709539 0.00903673149468 -0.00793353391402)
(0.808169924521 0.0159608366656 -0.00840775941821)
(0.810050247348 0.0147611068991 -0.00613593741083)
(0.741764122837 0.00827066235987 -0.00431397444888)
(0.746424282869 0.00989319914332 -0.00691895291167)
(0.808300280555 0.0148462462088 -0.00863206148686)
(0.747244650247 0.00880651214844 -0.00717442498064)
(0.809966295872 0.016324635676 -0.00600892809643)
(0.806295802556 0.0132809455915 -0.0091847865601)
(0.804224725066 0.0138023518596 -0.0104117255084)
(0.750503555477 0.0105412069075 -0.00807092106071)
(0.756639291929 0.0105730706788 -0.00845845145008)
(0.806519761769 0.0139912134689 -0.00988159113523)
(0.804444382955 0.0133892905275 -0.0101457326726)
(0.750590322408 0.0110656497186 -0.00699296659764)
(0.809658668463 0.0135009512138 -0.00636591342106)
(0.745792345099 0.0103342664072 -0.00703973589622)
(0.808017040999 0.0138595902762 -0.0084816484234)
(0.811337114783 0.00525909407575 -0.000674266570732)
(0.812920010221 0.003945458814 -0.000764988537012)
(0.814008225988 0.00241941906805 -0.000656139492822)
(0.811694277833 0.000223679189568 -0.000567241862185)
(0.803787187977 -0.000532298320075 -0.000221616886315)
(0.831978163536 -0.0474285709446 -0.000261550140454)
(0.811916579432 0.00544143375452 -0.00142575523875)
(0.813283365253 0.00421639984108 -0.000684313374946)
(0.81428481689 0.00331634647677 -4.35399967143e-06)
(0.812554749642 0.0003458293685 0.00251879388329)
(0.804531997875 -0.000940481900666 0.00613853372806)
(0.837117320948 -0.0541967883915 0.00747006133469)
(0.811455963724 0.00565803431534 0.0011675954375)
(0.804228416187 0.00641116473539 0.00101442478911)
(0.782062389629 0.0110119112437 0.0014117293292)
(0.77918907192 0.0113168548632 0.000758275617121)
(0.776892639226 0.0116656947562 0.000650378326562)
(0.769093812214 0.0126099687919 -0.00215155922025)
(0.777430065259 0.0137938975354 -0.0434446263491)
(0.70876363694 -0.0111339782542 0.0281545833339)
(0.820803358433 0.00478695800307 -7.19897195223e-05)
(0.816247302991 0.0029438706918 -0.000443110342644)
(0.813409617354 0.00118968917932 -0.00157156295849)
(0.812732268415 -0.00125802542811 -0.00350514748536)
(0.811270593623 -0.000720764653643 -0.00439809013637)
(0.811575149899 0.00166563513222 -0.00460982159087)
(0.802230941602 0.00891853111714 -0.00623941859617)
(0.831279817515 -0.0905814477451 -0.00243890130373)
(0.81406678825 0.0063217304143 -0.000821620329443)
(0.815873059309 0.00494380781128 -0.000857402462619)
(0.816318536782 0.0035420404796 -0.00140700906335)
(0.816065719687 0.00289822405416 -0.00246950356768)
(0.815479572855 0.00283863295272 -0.00249105164632)
(0.8157382394 0.00268424700762 -0.00200959161301)
(0.807463353362 0.0024265683123 -0.000942871996742)
(0.84340397243 -0.0555218064619 0.00296141042631)
(0.810689490669 0.00709373423094 -0.00102572264512)
(0.813461199717 0.00450752574141 -0.000647185885543)
(0.814641969718 0.00288053149216 -0.000928976880529)
(0.815031149966 0.00156685648035 -0.00122671385282)
(0.814294345704 0.0011545510466 -0.00174633132529)
(0.814012071649 0.000181869424255 -0.00140643718596)
(0.805171936502 -0.00141696841528 -0.000504405348533)
(0.835679433655 -0.0673417371142 -7.26382632165e-05)
(0.813675811283 0.00208404802202 -0.000935498552527)
(0.813245741127 0.00115725352117 -0.00076501214977)
(0.804736561319 0.000115226361093 -9.07303581867e-05)
(0.834205216933 -0.048928734381 5.28803857804e-05)
(0.634450202575 0.0423635805317 0.0161386680336)
(0.627891651508 0.0397891108258 0.0155957500601)
(0.638389722819 0.0247601431258 0.0161708748658)
(0.635352838697 0.0229891626279 0.0144213351693)
(0.632665847853 0.0201312795235 0.0187341612821)
(0.578066070458 0.0146572338474 0.0280187981754)
(0.683932667769 -0.00112102353635 0.0478442036902)
(0.0759026324932 0.141630557617 0.0784297423782)
(0.769145904962 0.0122231572322 0.00926973878205)
(0.762230900033 0.00984045636287 0.00904516600876)
(0.768301514912 0.00336430198299 0.0104567800153)
(0.766115885089 0.00251844348172 0.0125729305164)
(0.765523920237 0.00482391108638 0.0141368492017)
(0.761088425219 0.00786566721799 0.0197069848124)
(0.75355031475 0.0587946998957 0.033352772973)
(0.747554787685 -0.226455610679 0.0514423062644)
(0.816208705278 0.00742582263865 -0.000601167356421)
(0.815702484066 0.0057245110166 -0.000566312162399)
(0.815256207839 0.00601101937374 -0.000623340675192)
(0.815480158372 0.00684201227392 -0.000554756415455)
(0.815327271714 0.00763351395432 0.000650460978018)
(0.817901509109 0.00792488226597 0.00409902838816)
(0.811164049225 0.0109004441488 0.0148812876406)
(0.888978074467 -0.0744280933798 0.0200147038607)
(0.811531411195 0.00723520586621 -0.00135294609013)
(0.813945578523 0.00487200936119 -0.00122328246587)
(0.814599512228 0.00358155354895 -0.000802565735907)
(0.814806638576 0.00306213422006 -0.000242619163147)
(0.814345028859 0.00269721180507 0.000879545546742)
(0.815768393991 0.00169479106115 0.00393091584688)
(0.806892478605 -0.000380144438426 0.0106302717908)
(0.850682668077 -0.088086102119 0.0136411601751)
(0.81385592883 0.00284483354002 0.000696878530924)
(0.814462190711 0.00187887962846 0.00267764815021)
(0.80594393302 0.00035581995902 0.00703687497126)
(0.842625331531 -0.059716141736 0.00905812145)
(0.629102211595 -0.0142982979852 0.0261847822141)
(0.623182813241 -0.0160662503634 0.0222947348311)
(0.626764615158 -0.0194524170944 0.0188291900398)
(0.627552987256 -0.0170261526045 0.0199583504475)
(0.633155915918 -0.0146088235417 0.0253880628119)
(0.638193565401 -0.0047279379359 0.0294952135788)
(0.694077750762 0.0661327942031 0.0845448165968)
(0.723641184951 -0.388872282551 0.0205692666461)
(0.730166267719 0.00661804583811 0.0264282907711)
(0.725902570724 0.00214392980319 0.0252736589926)
(0.776524650929 0.00179404061428 0.00815609704208)
(0.775827063715 0.00183431229441 0.00916182746127)
(0.777612974223 0.00222724912609 0.0114072804222)
(0.785730280897 -0.00080987812915 0.0116059634312)
(0.795379666234 0.00355892596073 0.0227790745547)
(0.915588946168 -0.247197665803 0.0242833493248)
(0.816596827217 0.00696098719945 -0.00111360510685)
(0.817573712318 0.00576860348506 -0.00110518574379)
(0.817242429778 0.00314801982449 -0.00191836153606)
(0.8177435843 0.00197040935724 -0.0021639397358)
(0.819295394472 0.0019172693409 -0.00211208204846)
(0.828369209084 -0.000370701051742 -0.000758757977072)
(0.821887074334 -0.0049038049234 3.25546563327e-05)
(0.927575339884 -0.183670954119 -0.00224257836405)
(0.808431306418 0.0109217130428 -0.00244434347276)
(0.811463324158 0.00704539292251 -0.00189660032816)
(0.814423622771 0.00425766953412 -0.00179928202023)
(0.816060043911 0.00258134930972 -0.001752751758)
(0.816814978213 0.00151632616759 -0.00213537988016)