/*--------------------------------*- C++ -*----------------------------------*\
| =========                 |                                                 |
| \\      /  F ield         | OpenFOAM: The Open Source CFD Toolbox           |
|  \\    /   O peration     | Version:  v1906                                 |
|   \\  /    A nd           | Web:      www.OpenFOAM.com                      |
|    \\/     M anipulation  |                                                 |
\*---------------------------------------------------------------------------*/
FoamFile
{
    version     2.0;
    format      ascii;
    class       surfaceScalarField;
    location    "3.1";
    object      alphaPhi0.water;
}
// * * * * * * * * * * * * * * * * * * * * * * * * * * * * * * * * * * * * * //

dimensions      [0 3 -1 0 0 0 0];
oriented        oriented;


internalField   nonuniform List<scalar> 
92311
(
0.201061213895
1.56880065118e-05
0.00079005500008
-0.201383467472
-0.000483563067957
-5.81413508056e-05
0.200741976345
0.00112833865268
-0.000750987098947
0.201010704727
-2.82403631598e-05
0.000837851457837
-0.201345587325
-0.000459053914679
-0.00016512949846
0.200656544606
0.00117947999232
-0.000718241263094
0.200830405343
-4.63350743372e-05
-5.31703746313e-05
0.000946001839275
-0.2012314858
-0.00049246027016
6.78351602102e-06
1.20240704182e-05
-0.000110217682852
-0.000108022936451
-2.35199541407e-05
0.2003947221
0.00126465237064
-0.000728586088649
-2.36876024776e-05
0.0502639165699
-9.7033412579e-07
-1.87233391788e-05
-1.43423506494e-05
-8.94176771286e-06
0.000174359309287
-0.0503105757911
-0.000131006251777
-0.0502283325871
0.0501506684666
-3.01811729521e-05
-2.89167360272e-05
-3.21218911038e-05
-2.7181027619e-05
0.000275366134992
-0.000189486926934
-2.55971804833e-05
0.000813993371549
-1.13279592738e-05
6.85207551076e-08
4.49426960361e-07
-0.000217818162876
-0.000857927575017
2.23233683648e-06
0.00015099481144
0.000825369336702
5.57034601901e-05
1.73674475312e-06
-0.000782907605545
1.40468121841e-06
1.7480128301e-06
1.34968466904e-06
1.44310587123e-06
-0.000172936700147
-7.70202148286e-10
-1.80195195965e-08
-4.08467150962e-08
-8.68228396994e-08
7.11551083004e-10
6.46497311176e-10
9.86676089389e-10
-1.65240942641e-08
-2.35277356876e-05
-1.90465591829e-05
-2.42016861476e-05
-1.79944936448e-05
0.00023687014896
-0.00016960034926
-8.28511188533e-06
0.0117710168589
1.47217363613e-05
-1.67061198864e-05
-0.0117834306946
0.0117678690792
-2.77863197447e-07
1.94881671353e-05
-0.0117705542068
8.34089962424e-06
-9.89827563494e-06
-0.000205876712987
-3.43519867359e-05
0.0500886762931
-3.41675075271e-05
-3.58581913236e-05
-3.31012666843e-05
0.000297357271191
-1.12403702657e-05
0.0500716655904
1.19845358916e-06
-1.05340116572e-05
-3.8346562018e-07
-0.0501421991197
-0.000137859355677
-6.92560497107e-07
2.46490344273e-05
0.0117621743289
3.28006816429e-06
-7.82007557283e-06
-5.26358483346e-05
0.0125126498781
6.35204329754e-05
-3.49776033874e-05
-0.0125226904621
0.0125093241671
-3.2922569527e-05
-2.08833889702e-05
-0.012519276679
8.68585447199e-05
0.201824232059
0.000310916815849
-0.000131151078485
-0.202090903751
0.200578135295
-0.000156249566236
0.00111930952766
-0.000798924566806
-0.000250318408245
0.200539266097
0.00106674158336
-0.000777153805581
0.000242510723984
0.201718575877
0.000357429575699
-0.000149451884058
-0.202082259286
0.200471660839
-0.000365177889841
0.00116792626382
-0.000773791661001
-0.000572160746506
0.200459758643
0.00111042604701
-0.000776331093244
7.35972235501e-05
7.07802636191e-05
0.00016354170327
0.000405888673454
0.201662579398
-0.000197786503986
-0.202091341609
0.000155206997036
-0.00018877232244
-0.000207094090201
-9.84808263525e-05
-0.000130120942582
0.200176241056
0.00122635220397
-0.000748454529286
0.0505452438348
4.09204679222e-05
3.27155226296e-05
2.83244838778e-05
2.89592055407e-05
-4.85290917688e-05
-0.05058438096
3.03688881139e-05
0.0500021625316
-0.000218263824198
-4.58378835872e-05
-4.73785087366e-05
-4.85999538776e-05
-4.82397236327e-05
0.000306107229591
4.96848926403e-05
1.48364895388e-06
0.00085994955869
1.6094867069e-06
2.03159317102e-06
2.05969608441e-06
2.36704887339e-06
-0.00014356719864
-1.41044898353e-10
5.17325212129e-08
1.89898723506e-08
1.07361293621e-08
7.15683588416e-10
-1.97611727122e-08
-5.42356666968e-09
5.27364242172e-09
-2.21132032743e-08
-1.38185723705e-08
-1.09678389755e-07
-3.11912376089e-08
2.31263315854e-08
-5.23709382187e-13
1.87853839011e-08
-0.000105765199508
3.89955727862e-05
2.94601434972e-05
2.72504916388e-05
3.03626518873e-05
0.0504895034438
0.000106174515484
4.09030909643e-05
3.84137937323e-05
5.85508044815e-05
5.13211272983e-05
0.0503652186018
-9.6040887871e-05
-0.0504005722295
6.16283657211e-05
-5.24299803862e-05
0.0117687590804
-4.62749889494e-06
-5.96107456684e-06
-0.0117931437457
4.5727047676e-05
-4.61539092751e-05
-0.011755673907
7.27244980997e-08
-1.98311424811e-06
0.0117503088084
3.85572280231e-05
0.0125708845768
3.30423696784e-05
-2.47174102651e-05
-0.0125768020017
-0.000225770798679
-5.94603501302e-05
-6.22529942251e-05
-5.85095826297e-05
-6.36913617695e-05
0.0499589327131
0.000305828967084
0.0499932556721
-2.31775131928e-05
-2.31060953026e-05
-1.35681515002e-05
-2.81829714824e-05
-0.000150298126092
-3.57868349471e-05
-4.62353373525e-05
-4.35730518909e-05
-4.85747866234e-05
0.0499691138554
-0.000157563327656
-5.60377725369e-05
6.60095681442e-05
-4.05269330525e-05
0.0124976240761
-3.01751824483e-06
6.10552835007e-05
-0.0117415080548
-2.50587898357e-05
0.0117286596408
1.54719141317e-05
-3.52355113977e-05
-2.84130147587e-05
0.0124938461805
-0.0124843921982
-4.51823813865e-05
0.0124787037599
4.03657958482e-05
-2.51529754949e-05
0.000772916376651
3.19229598672e-07
1.02031959251e-06
6.70184520581e-07
-0.000213603349095
0.000124597802591
2.55763463209e-06
6.56759175442e-07
1.10846883152e-06
-2.31520711102e-06
-5.20141840187e-06
7.95592756034e-07
0.000842574050386
-9.17946151178e-06
-0.000781946891467
-9.44739301938e-08
2.64290212874e-07
-1.39613583508e-07
4.58838334707e-08
-2.67258660403e-07
1.37986435044e-07
-2.31247620564e-08
2.25988198815e-06
8.67822239563e-07
1.34740697665e-06
1.28739709556e-06
-0.000194214041442
8.20879054736e-05
-3.13599584554e-09
-5.37086786713e-07
8.77085110052e-08
-4.57362440873e-05
0.0125539813905
4.28952318726e-05
-0.0125602725195
-0.0125484738439
-2.46958224455e-05
5.08178060811e-05
0.0125495191797
-4.55982709429e-05
1.32982503336e-05
4.65282075024e-06
0.0117663723905
-1.53477145662e-05
1.5411782424e-05
0.0117854712924
-0.0117807941485
1.34967150575e-05
-0.0125509633622
-4.20404074052e-05
0.0117867299225
1.04469911265e-05
0.0125522382329
4.84836404272e-05
0.0125501998227
-3.0036829537e-05
5.43350775817e-05
-4.8171222584e-05
-5.62864552828e-05
-0.0125527765475
0.0125514344991
5.84406591114e-05
1.25143891549e-05
1.84015930707e-05
-1.27812837616e-05
3.20161535717e-05
-0.011779374438
0.0117731075748
4.39104207821e-06
0.0125502752106
-4.81541800256e-05
8.12779416422e-06
5.45801876804e-05
-0.0125436729066
-3.02739651945e-05
5.88889612269e-05
0.0125346474399
-4.95858743774e-05
-5.72318432599e-05
0.0125436301756
6.10553479691e-05
-6.23885399916e-08
2.38363329808e-05
0.0117602747791
-4.71101757772e-06
3.38463591771e-05
0.0117682813044
-8.88854151415e-07
-4.8530112603e-05
0.0117655235557
-5.94708437252e-06
0.0125346629638
6.47907368851e-05
-3.14810738226e-05
-0.0125236097125
0.0125139985641
7.06787184981e-05
-9.69647886739e-06
-0.0117593048592
0.0117597403785
6.30876869113e-08
-0.011759694508
-1.70926772365e-05
0.0117579370921
-3.43549825057e-05
6.09556422454e-05
-5.01680832814e-05
-4.17053946459e-06
2.91418308922e-05
-2.34883147705e-06
-1.22019302784e-05
6.82511182813e-05
1.46052241127e-06
-0.0125182231692
0.0125070708152
-2.22102464883e-05
-1.90034684164e-05
-0.011753724163
0.0117485373966
-0.0117524788704
0.011745184777
-1.81451883881e-05
-3.15376594359e-05
-1.75749371661e-05
-0.0125308496554
-9.24931286433e-07
1.46403333339e-05
-0.0117622898659
-1.6324801644e-05
-0.0125314554621
-1.97826163266e-05
-0.0117629959347
-2.2992077788e-07
-0.000171056067343
-1.75693288808e-05
-2.03482462753e-05
-5.18378107424e-05
-7.24324917567e-05
0.000885922955265
-0.00084404638881
0.000188720501543
-1.10983383388e-07
8.57201509954e-07
1.55815515179e-07
-8.92633973841e-07
0.000772418630138
-4.12184092405e-07
-4.75482722847e-05
-3.75402682116e-05
-7.13920500976e-05
-5.43466076971e-05
8.7848836226e-05
-0.000671992574656
-5.78187256747e-07
-3.57342371249e-05
-5.4974995517e-05
-7.93527115782e-05
0.000866192236544
-0.000117839568615
3.33968337413e-07
-9.7571947328e-08
-3.11208268214e-07
2.15832052675e-07
-5.05235405828e-08
2.87909719846e-07
1.17711823193e-06
0.0008570924968
1.84767395375e-06
8.82534032292e-07
2.51468474203e-06
2.64081997091e-06
3.15981804955e-06
-1.67774577511e-07
8.35715504439e-07
2.46756305037e-07
1.07085167355e-07
-4.16622910328e-08
1.73690897355e-06
-4.12357484548e-05
4.29792442412e-06
5.36708713705e-06
4.60337487933e-06
3.83595086236e-06
0.000839128952404
1.0540569926e-05
-2.70008359557e-07
1.82637589911e-06
3.03691931497e-07
1.98562475855e-06
2.72424776977e-06
4.10997008187e-06
3.01458849659e-06
0.000862298598967
-0.000114206769764
2.10776901022e-07
-5.08451111381e-08
-6.17757158024e-06
-0.0126250052057
6.86300682042e-05
0.0126121750018
-9.09247718979e-06
0.0126400927924
2.0308419146e-05
-3.18557489705e-05
-0.0126483612017
-4.53888096642e-05
3.02213405479e-07
0.0117576458045
-3.47030570915e-06
-4.52832078741e-05
0.0117724422134
-0.0117723924408
-5.1386884373e-06
0.0126304375728
-1.38885991182e-05
-0.0126314920764
1.02208888712e-05
0.0117537633151
-5.9864536423e-06
9.30270887515e-06
0.0125982433264
7.11212683131e-05
-2.78914585788e-05
-0.0126207718796
-3.0290325856e-05
2.4054836616e-05
0.0126101172178
-4.16269842745e-05
4.07360186814e-06
-1.91173406453e-06
-5.09762801067e-05
-0.0117334801292
-4.31703925674e-06
0.0117283964176
4.18402701098e-06
-4.17920947733e-05
0.0125889421679
-5.35104239997e-06
0.0117620804183
-1.20596034519e-06
1.86852381902e-05
-0.0117522392585
-3.28191679846e-05
-4.61016575058e-06
0.0117709578487
1.77670423363e-05
4.3355199369e-05
0.0125676002176
-3.43811960971e-05
0.0125832340193
7.76502015072e-05
-0.0125974515503
-6.09856700585e-05
-0.0117411145582
0.0117355249292
0.0125749865624
-0.0117607755705
-3.8609476936e-05
0.0124995725811
7.19046284485e-05
-1.53103260904e-05
0.0117542430482
3.52659565922e-06
0.0117548691361
-2.43045043937e-05
6.68127018315e-05
-4.68799589427e-05
0.0124876511227
-5.83365305579e-05
4.35796955435e-05
-1.83091933076e-05
0.0117501284159
7.44225221317e-06
0.0124883840698
7.35410994537e-05
0.011748078449
-2.83608190127e-05
6.87588405784e-05
0.0124774814745
-5.89778430096e-05
-5.88630636544e-05
-0.0124768045774
-6.87354685197e-05
0.0124697851837
7.47468530205e-05
5.29515381385e-05
-2.11954318508e-05
1.27573937979e-05
6.87385470752e-05
-0.0117325368035
-3.16015339021e-05
0.0117113632241
7.49823979327e-05
-5.72842456996e-05
0.0124713201084
-3.1346529079e-05
-0.0124908023411
-3.14435952544e-05
3.88439731349e-05
-2.40433578118e-05
-9.67193003904e-06
-2.29602950809e-05
-2.44619529599e-05
0.0117397303602
0.0117380568246
-2.04468824009e-05
2.74957289705e-05
0.0117194727185
-2.04405271266e-05
-3.90253049153e-05
0.0124853410864
0.0117248973938
0.011697342409
3.02077631789e-05
-2.07747797797e-05
5.96001591954e-05
3.14666243741e-05
0.011667425139
-1.97841860528e-05
3.90972412822e-05
0.0124767971062
-2.35620727746e-05
0.0124779055196
-5.44835667523e-05
6.35559458157e-05
-0.0117028816921
0.0116799135864
0.0124749145572
-0.00029869635004
-0.000230939807492
-0.000298370652308
0.00115746716285
0.200398841484
-0.000368776452916
-0.000755441223254
-0.000225273325581
-9.12406252975e-05
-7.97827177663e-05
-8.72846850957e-05
-8.23279120786e-05
0.000303390613368
0.0499227714525
3.64572625373e-06
3.7466614251e-05
3.09158533154e-06
5.00831421985e-06
4.79179874304e-06
6.61872417103e-06
-9.53144882621e-05
0.00081619900893
-6.80405027828e-08
-9.02263192431e-08
-2.04378949217e-07
4.37246697189e-09
2.29225501948e-07
-2.48156167496e-07
3.71356215172e-08
2.84897362412e-05
3.09654984903e-05
3.19690275088e-05
2.63280919624e-05
-0.000103632046888
0.000222088188612
0.050303398514
3.60601688441e-05
-3.00249692266e-05
-9.94374147271e-06
0.0117614178669
0.0499464789045
-7.20941836632e-05
-6.42655015232e-05
-6.58729346851e-05
-7.06810159269e-05
-0.000160681302035
0.0499859675719
-9.35026884053e-05
-0.000100392644898
-0.000107804131111
-8.97792479318e-05
0.000209065894394
-0.00015539265316
7.60111742681e-05
0.0117017521462
-2.60018494649e-05
1.88565945588e-05
-5.99774224623e-06
7.42284890617e-05
2.74700822711e-05
0.0116334999905
-1.53848498916e-05
0.0115027513885
-7.05712363769e-06
0.000110074946595
5.97864373946e-06
-0.0115606303784
-4.5952625911e-06
0.0501232756733
-0.000141668117891
-0.000117434309709
-0.000118776776329
-0.000135664227184
0.000330020544276
0.000202462477346
-0.000156240526397
-0.00013985811134
-0.000161107503806
-0.000158628721223
-0.00013664722433
0.000415745257651
0.000186026916329
0.0502817412589
-0.000163929469419
-9.45007505435e-06
0.000129981918825
2.01874098413e-06
0.0114433866724
-4.31307909418e-06
-2.22855559413e-05
0.000208641208316
7.66958882567e-06
-0.0113029786208
0.0112121036691
-5.80588455915e-06
-2.49139371318e-05
-1.76070097907e-05
-2.43713899378e-05
-0.000224113088838
0.000864223075167
6.02929197853e-07
0.000778103467803
2.50448795283e-06
4.80059299396e-06
6.12514737436e-06
5.89268025117e-06
1.70532146941e-05
3.92593735935e-06
0.000659394723817
9.00126538007e-06
5.53703689523e-06
7.02691282773e-06
-5.56493858229e-05
4.53855126646e-05
-7.6772811618e-08
1.84594841371e-08
1.02347775409e-06
2.9291948315e-06
-1.72219137634e-08
6.70708744335e-07
3.60474856173e-06
-9.74329620873e-08
0.000498629912878
1.12875743717e-05
1.3264780581e-05
1.48375563516e-05
-9.69976335141e-05
4.85255523638e-06
9.04522871116e-05
2.08354939274e-05
1.76595013677e-05
1.69874663938e-05
-0.000132278093075
4.45558487271e-06
0.000348048580489
0.000116744087743
-0.0125688473931
2.26130288015e-05
-6.07434714502e-05
6.9746856848e-05
0.0125659302024
5.08489582365e-05
0.0125607811162
-3.19021793543e-05
0.0117471639435
3.22542552722e-06
-6.33033168063e-06
-1.63343903679e-05
0.0117605291628
5.71136856763e-05
3.9073194892e-06
0.0117545986356
0.01255884632
6.37756430117e-05
-0.0124615209158
-0.000103369187573
-4.96775034305e-05
0.0124599166105
0.0124580844127
-6.63955360913e-05
7.45200761707e-05
9.36308209358e-05
-2.41492706671e-05
1.95416537654e-05
0.0116618857908
8.33533399718e-05
0.0116804964374
-2.92031480454e-05
7.29278603868e-05
0.0124555527002
-5.52481800886e-05
-2.35784650505e-05
0.0116362726166
-0.0124671398153
-8.5920953151e-05
-3.1748927359e-05
0.012463387938
3.88310864457e-05
0.0124709904003
-2.27675695504e-05
7.42162565619e-05
0.0116474059178
1.81451354749e-05
8.02205836452e-05
0.0116027651098
-1.15553054494e-05
0.0116055234844
0.0124685447633
-1.941675291e-05
0.0124582119212
-0.000104792538904
-2.86257863738e-05
4.54994849446e-05
2.92378037381e-05
-0.0124609667711
0.0124641218116
-2.2321955074e-05
0.000129974387132
-0.011560267964
0.011504789182
9.35930188668e-06
1.21366866494e-05
9.0667477162e-05
-8.44253934421e-06
0.0124660339097
4.40989190384e-05
1.56906065563e-05
-1.97809446744e-05
-0.0124815555481
-0.000177192277039
-4.05318467804e-05
0.0125116428878
4.68635834503e-05
3.16928476209e-05
0.0124728062445
-2.71917464878e-05
0.000145251880453
0.0114452416791
5.99164852183e-06
-1.77544626485e-06
0.000172099757794
0.0113731837752
5.59004723765e-07
4.33837366053e-05
0.0113616079614
-3.49230948428e-07
0.0125039766127
-3.42015402382e-05
0.0125529681668
-0.000180304576698
-4.93426991749e-05
4.94050967706e-05
5.4806663918e-05
-0.0125513196874
0.0125926876421
-4.7221676594e-05
0.000193510668959
-0.0112769551275
5.93495445079e-06
0.0111904268865
7.84684405177e-06
0.000190811971384
-6.2170530931e-06
5.19137256389e-05
0.0125918369978
7.19267245177e-06
-4.1111239771e-05
-0.000554979737898
-0.0492989095402
0.049212189572
0.000687342730621
-1.3012538743e-05
3.8491127873e-06
-1.13363481356e-05
2.27041174687e-06
-2.7478023208e-05
-0.000700937365207
0.0497353303102
-5.84331046392e-06
1.03428319739e-05
-5.51015676485e-06
7.14015695057e-06
2.75062423676e-05
-0.0496884044206
0.000620272876668
-0.00103491058976
-0.0499094016714
0.0502105674057
0.00086723310456
-5.14459225116e-05
-3.74901822174e-05
-4.49386054462e-05
-3.9186674608e-05
3.94971103021e-05
-0.000684434279902
-4.08533493261e-05
-2.79149718859e-05
-3.17307582772e-05
-3.40254023911e-05
7.64236850106e-05
0.0503066085951
0.00056007054968
-0.0501241961458
-2.20692299395e-05
1.2230321688e-05
-0.000683255878264
0.000645365780757
-5.95200895363e-05
1.17621816472e-06
6.67207097052e-07
2.28682013891e-07
3.11395135484e-07
1.92170245082e-06
-0.000569824259029
0.000466938577732
-8.47972724955e-05
2.79797610643e-06
6.81150865878e-06
6.93929738425e-06
4.62300534463e-06
4.28764569936e-05
-3.72524884395e-05
7.37571870815e-05
0.000649240043492
3.03884882114e-07
-5.11244452495e-07
-1.52547617471e-05
-9.66931976653e-06
-0.000680190407395
-5.63405128479e-05
1.31938005456e-06
0.000102503690798
-0.000569774013681
0.000486684625344
-0.000104053335903
1.72568659022e-06
2.69351772278e-06
2.92349864332e-06
2.27317614052e-06
2.05923405195e-06
0.00010982663762
1.50145449578e-06
2.74906581209e-07
2.4376537308e-06
0.000525420574898
-0.000123903932715
1.42105794263e-06
-0.000576435329476
5.22508162092e-08
-3.97530967122e-09
-6.38985176123e-08
-3.24058276644e-07
-6.90631937054e-08
-2.97648615727e-07
2.02070813452e-08
2.00983979566e-09
2.58998302528e-08
-8.13153128517e-07
-7.92054317812e-07
-6.85327071125e-07
-5.79381679098e-07
1.87310217448e-07
2.91504350463e-08
3.20342472613e-08
8.79728886176e-09
-3.31064139061e-08
-1.97025860267e-07
-1.19711890866e-08
-1.31603218883e-07
2.06524716297e-09
7.22290474599e-08
-4.51351712305e-07
-3.0335674321e-07
-3.21206559216e-07
-1.88823111115e-07
9.64738456084e-08
4.88230790233e-08
1.55550150637e-08
-6.78550203182e-08
-3.90894695753e-08
1.83476170712e-10
4.67624882467e-09
2.92884617971e-08
-2.69369141114e-07
-2.17660797398e-07
-2.07684707737e-07
-2.29013082726e-07
1.6177910609e-07
1.04643748487e-07
0.000191548627183
1.19407915079e-05
1.27902070818e-05
7.50817394789e-06
1.46876135117e-05
0.0490114865765
-1.56800970531e-06
2.74117244849e-05
-0.0492758372317
0.0491158453834
0.000384403500082
1.15236824571e-05
2.08639084371e-06
6.84794647212e-06
9.27690853538e-06
-1.03847121027e-06
-0.0493374247704
8.91354273117e-06
-1.02601127671e-05
-0.0119768144157
2.57727343404e-05
0.0120004876483
-1.48362972283e-05
0.0120390174568
4.43818421014e-05
-7.72100490978e-08
6.06711060446e-06
-3.64802969338e-05
-0.0120229000687
-7.7565511545e-09
1.26025598849e-05
1.43473342192e-05
-1.45879217597e-07
-0.000285739504375
0.0122532982798
0.0122425652909
0.012168265988
0.0122323089897
-7.66978211046e-05
5.74375192663e-05
1.76203961343e-05
4.37559059682e-06
-5.40476556067e-05
0.0120262114931
0.000510329135431
1.38326547797e-05
4.85134850292e-06
1.11031253923e-05
8.5125566958e-06
-3.74966695488e-05
-0.0494256709942
0.0495019705778
1.97343287715e-05
1.56233840285e-05
1.45035241346e-05
2.02908432076e-05
-4.20854006441e-05
-0.0495617774615
0.00054200179153
0.0120480516498
4.87820063449e-06
1.04055784563e-06
-0.0120347064659
4.73643860718e-05
0.0120463900939
1.5344608333e-05
-1.90351248764e-05
-4.60915693036e-05
-0.0120340895211
5.04873402123e-05
0.000971889528567
-1.02587720757e-05
-3.81746207921e-05
-1.3668433983e-05
-3.10743267408e-05
0.0492688215543
-0.000221614267053
-0.0001934576037
-0.000224144596775
-0.000188385117294
-3.31161094252e-05
-2.00032206233e-05
-2.83198018515e-05
-2.64081643793e-05
0.0494741591722
-8.81718370357e-06
1.05180958614e-05
9.48805396141e-06
-5.21743943627e-06
8.07184438397e-06
0.0496784746784
0.000874724924832
-1.25207034188e-05
-3.95538563445e-05
-3.41454337103e-05
-1.45393356888e-05
-6.487629678e-06
-9.14540450865e-08
0.0120358382557
5.55162326963e-05
0.0119840877698
-2.7641960111e-06
8.55641198836e-05
-0.0120064045958
0.000101785751878
-0.00010708253701
6.13292406292e-05
3.11852702387e-05
-1.30989789585e-05
-6.75125615596e-05
0.0120373996196
0.0119987975274
9.05430786561e-05
-1.9346989052e-06
6.87125349964e-05
-0.000105553935014
-0.0120164165981
0.0500315140412
-4.91053954005e-05
-2.8470351349e-05
-3.32578338893e-05
-3.46770612249e-05
-0.00117605877624
-6.6442463483e-05
0.00120877788536
-8.99539733279e-06
-1.99053276699e-05
-2.2387211482e-05
-1.0747568729e-05
0.0506516366935
-0.000221771751784
-0.00154527393214
7.37890380274e-05
0.0119263309605
0.000115032858226
-0.000133079162588
-5.30513224829e-06
7.6528011357e-05
-0.0118602713804
0.000173636197443
0.0119176911971
-0.000188519855991
0.000105700331756
-1.04625849566e-06
5.67376820376e-05
-0.000134136649382
0.0119676908018
0.000120504018796
-2.06551649718e-06
4.84512692025e-05
-0.000144223202339
-0.0118711786678
0.0119111515541
0.000746425667354
-1.5124287738e-05
-4.27917955839e-05
-1.84899433022e-05
-3.56731435733e-05
6.62878782522e-05
0.0500426513787
-4.58128952506e-06
-2.93156739151e-05
-2.3400152865e-05
-1.16294419479e-05
5.08950817171e-05
-0.0498831979571
0.000604889236407
-2.19046705918e-05
0.0120374626881
5.58140666915e-05
-0.0120440514443
0.0120045645581
-1.81783462895e-06
6.01615984849e-05
-0.0120220381629
8.15025659073e-05
0.0119848566644
-1.22846572386e-06
4.16119453352e-05
-7.07716798408e-05
-0.0119975123048
6.20201097441e-05
0.000951435469936
-3.22324982673e-05
-4.10827917765e-05
-3.82780385236e-05
-2.56715900744e-05
0.0505745270352
3.0597574049e-05
0.0502636892433
-4.01878693294e-05
-2.67102606238e-05
-2.83303740834e-05
-3.05714936712e-05
8.74623129089e-05
-2.53635111704e-05
-2.5579738834e-05
-2.528790182e-05
-1.90744523904e-05
0.0505083144001
0.000731922935591
7.0006421521e-05
5.529584686e-05
0.0119766885993
8.8253373961e-05
-2.31540203589e-06
4.75707691942e-05
-0.0118813464311
0.000102642842488
0.011916972625
6.57097474953e-05
-1.51307913555e-06
4.27605582761e-05
-7.2702414195e-05
0.0119702667437
6.17928981306e-05
-2.00929718027e-06
3.41319469572e-05
-6.66509791569e-05
-0.0118669044723
0.0118906161523
4.69417332779e-05
0.0119642829207
6.91881438393e-05
-0.0119749028934
3.58698931911e-05
-0.011860304092
0.0118794312903
-2.26196159783e-06
6.0215643922e-05
6.4232104075e-05
-2.02221560437e-05
-1.78104172675e-05
-2.17876724635e-05
0.000787404550666
-0.000121356492949
-0.000785185669114
5.94377632047e-07
0.000726645110798
-1.03935007389e-05
-1.08059676772e-05
-7.88500226116e-06
-1.94427729999e-05
-0.000727694859215
9.10898924874e-07
1.51702218608e-06
1.30022057893e-07
8.67653890283e-07
7.75652801287e-07
-5.86752141023e-05
0.000685434292585
6.13789726818e-07
1.59983187513e-08
-1.2878931329e-06
1.3735908226e-08
-3.75551372077e-07
-3.43543563908e-08
1.54435088793e-06
-3.0731166883e-06
1.08476733679e-08
5.41951507337e-07
2.12266156236e-08
-2.16546726823e-07
1.32411739601e-06
-2.53217243121e-08
-2.8981678098e-06
1.62475166448e-06
-9.32511003789e-08
-4.08942451858e-06
-2.65163008691e-08
-5.94714618981e-08
8.43694638688e-07
-3.77241269774e-06
-1.76566383175e-09
1.20917668182e-06
-1.0303702243e-07
-3.60553010467e-06
7.56839446535e-09
5.33302909725e-07
-3.18088508213e-06
-6.10747431656e-05
-7.49516004211e-06
-1.36735282996e-05
-2.70698715343e-05
6.34385157093e-07
-0.000682276552974
0.000679948952281
-2.31595597617e-05
-1.90735474249e-05
-3.58581931147e-05
-0.000663357505653
5.73448589617e-08
-6.95589653662e-05
-6.55382633532e-05
2.30091024481e-06
2.94344103817e-06
2.96370671042e-06
1.81787025539e-07
2.05914211351e-05
0.00064023504223
7.52306798693e-07
7.54211796289e-09
3.34638699664e-07
2.50307272752e-07
1.77819862421e-06
0.000565364274315
-8.5236888077e-05
2.47709380713e-06
2.1065600238e-06
2.78232235405e-07
4.3164186693e-07
4.07317150461e-08
-9.8255382651e-08
7.23652315877e-08
1.06683929735e-06
3.70998054512e-07
2.88568472362e-08
-5.16815773404e-09
9.74603923898e-07
1.33109068069e-07
-8.69734424224e-05
2.32393202767e-06
1.01045001655e-05
3.7880229505e-06
-8.62379042613e-06
0.000362615634009
4.9537434661e-05
0.000475288663738
2.15854915393e-06
5.18665062434e-06
3.495688879e-06
3.76757620253e-06
1.43342581013e-06
-8.63569601495e-05
1.78150602981e-06
4.4053094965e-06
-7.72601987218e-06
0.000398552635357
9.14338404342e-07
1.21090589262e-07
2.04834358116e-07
3.75041619348e-07
8.96127928793e-07
3.17453932893e-07
3.50264228661e-07
4.6250653447e-07
-7.75675083182e-05
1.37587655576e-06
1.52758058189e-06
1.70623132698e-06
-7.9014706988e-07
1.16953260248e-06
0.000569385629851
1.02965680846e-06
4.14984790485e-07
-6.59265845713e-06
-0.00065416732161
-5.16200765952e-05
2.59174558882e-07
-2.14451841725e-08
3.15762269386e-08
1.44678016729e-07
9.92286517406e-07
1.13058462392e-06
-3.098375841e-07
1.38582587189e-07
-8.34757363284e-05
1.22604214852e-06
3.33755463724e-06
6.06511195606e-07
2.90059980257e-07
0.000424891501284
0.000504291295357
1.53526832545e-06
2.11130570207e-06
1.86853038289e-06
2.57138248031e-06
1.21846313781e-06
3.96816718103e-07
1.0244168804e-06
1.29491067284e-06
0.000458186371757
-0.000100995046847
1.13304729042e-06
3.68466775449e-07
4.61184653821e-07
8.161366226e-07
1.70636267914e-06
3.27020071377e-07
1.65158132353e-06
4.97946565841e-07
0.0122909648895
1.21775260171e-05
-4.4152899349e-06
3.27568191434e-05
-0.0123195296116
1.38881932279e-05
-0.0122843980013
0.0122542825213
1.88438774364e-05
2.35258341214e-05
-1.90495184472e-05
-1.57930483319e-05
-0.0119636555413
-4.93406947839e-06
-0.0120003561678
3.02990073645e-05
0.0119962686771
4.46968041047e-05
0.0122628186563
2.73055908611e-05
-0.0119938361718
1.90536212418e-05
-0.0123120900761
0.0123022046041
6.05214429253e-05
1.08607869171e-05
-0.0123291577902
-7.61307042905e-05
-0.0123157830488
0.0122956464604
0.000104495813479
-1.64325882872e-06
-0.0120161476395
0.012015279519
-5.61097333868e-06
-3.1270628985e-05
3.75036532759e-05
-0.0120131662842
0.0122760640363
8.77242459615e-05
-0.0123392324013
-0.0120071954394
-0.0122566851914
0.000118503744862
-3.00834040174e-05
-7.71408684497e-05
0.0122453979625
-9.44501837965e-05
0.012277932466
0.00012926558097
4.06128532767e-06
0.0120215876939
-3.75711775372e-05
3.13021038178e-05
-5.34907585453e-05
6.81248024433e-05
0.0120073845179
-5.67077677612e-05
0.00015493555894
0.0122726568765
-4.2690837283e-05
0.0120178990522
-0.000109016288342
0.0123544040619
1.49610961251e-05
0.000122955280862
-0.0123694797057
-0.0123356954441
0.000124627985725
0.0123214425915
-7.15497232255e-06
4.35893113896e-05
-0.0120232848125
-4.3946463063e-06
-0.0120385616865
4.72229834747e-05
0.0120382371226
-0.0123530398707
0.000139559675251
0.0123436602046
4.09462919787e-05
-0.0120367573363
0.0123748998953
0.000130028219771
2.6224395139e-05
-0.0123884411409
-0.000146699504898
-0.0123929055379
0.0123863304301
0.000149847748147
-1.65988384906e-05
-0.0120362976186
0.012037503526
-2.49085795391e-05
-3.81494655125e-05
-0.0120232042762
4.31543475664e-05
0.0123657604467
-0.0124025563308
0.000135073683899
-0.0120367841061
-0.000175485641518
-0.012333287462
-2.75985779452e-05
0.0123363449999
0.000187193611457
0.0123051469584
0.000149347505031
2.97107768843e-05
7.62005976047e-05
0.0120192906639
1.87339524116e-06
0.0120535952232
6.0794592807e-05
0.0123029691576
0.000163860338641
0.0120451000498
6.98691171202e-05
-0.000204090780651
0.0123510320083
-3.64200901312e-05
0.000215565090215
-0.0123189405294
0.000241792793321
0.0123503870333
-0.000225849798072
5.15349338043e-05
0.000107004484613
-9.08701299824e-05
7.34130910291e-05
-0.0120193476741
0.000105319534326
0.0119370219062
-0.000181993841231
0.000249840466569
0.0123854033246
8.8799742604e-05
-0.0123609942929
0.000191673972135
-1.92599844107e-05
0.0123670777025
-0.000172288908452
0.0123832889498
0.000172729116436
-5.85949610078e-06
0.0120538901181
1.36244537045e-05
-6.64953310601e-05
0.0120309325998
6.82845473579e-05
0.012391505259
0.000191864677211
0.0120500584357
0.0123845406718
0.000215761115635
-3.0179698152e-05
-0.000246084076001
-0.0124140477887
0.0124506355609
0.0002387119541
6.53375228651e-05
-0.0120292420579
0.0119500401883
3.36601467936e-05
-7.69251412902e-05
8.26660449364e-05
0.0124195750465
0.000212339397017
-0.00031121231582
-0.012437731594
-0.000100252643813
0.012493622721
0.000314758386532
4.08154460233e-05
0.0123916493844
0.000264258110346
1.93660845473e-05
-0.000251002935782
9.39736074754e-05
0.000164512792031
0.0118201854213
-0.000154934860455
8.85833746674e-05
0.011923073915
0.000132357925448
0.0124488831575
3.02154672776e-05
-0.000304387340768
0.000274124008472
2.66638895198e-05
0.0119231656812
0.000145146091737
-0.000342136061385
-3.77018738397e-05
0.0125688788254
0.000334981720431
-3.03998895235e-05
-0.0125507891422
0.000366846605257
0.0126507504044
-0.000374599858326
-1.57928551101e-05
9.88521147613e-05
0.000204455195594
-0.000182345781977
-0.0118653732654
3.54860390531e-05
0.000166699713929
0.0117801972497
-0.000333275362306
-1.16493567446e-05
0.000161926193982
0.000363498165054
0.0126392896476
-3.20972820278e-05
-0.0124723766333
0.000296659274173
-8.77268648256e-05
0.0125290972151
-0.000268436014841
0.0124934241303
0.000254034476584
8.00588971314e-05
0.0119351426023
6.46636401447e-05
-0.000123139497107
0.0118721850794
0.000114013294361
0.0125417360091
0.000278264183748
0.0119403458873
0.000304713613463
-3.66471308461e-05
0.0125870170555
-0.012596327077
-0.000322003401735
0.000298895682014
0.0126474482515
-0.0118840878776
2.72141891089e-05
0.0118013284957
5.98148399141e-05
-0.000123093457102
0.000121495852903
0.000287041350191
0.0126445730278
-0.000180447603808
-0.0124277469712
2.42651600023e-07
0.0124362618496
0.000165814685404
0.0124076291869
0.000163059063927
-0.012409498043
3.37996337686e-06
6.87461525503e-05
0.0120360720299
-1.62594380401e-05
0.0120355455293
-0.0120268629676
5.74676911477e-05
0.0124169160669
-0.0124259964667
0.00015217018887
0.0120346389714
6.3814648957e-05
-0.000200024079155
0.0124549622332
-1.56655794752e-05
0.000181864987247
-0.0124388225199
0.00022088511767
0.0124740382729
2.80810783841e-05
8.33298529579e-05