/*--------------------------------*- C++ -*----------------------------------*\
| =========                 |                                                 |
| \\      /  F ield         | OpenFOAM: The Open Source CFD Toolbox           |
|  \\    /   O peration     | Version:  v1906                                 |
|   \\  /    A nd           | Web:      www.OpenFOAM.com                      |
|    \\/     M anipulation  |                                                 |
\*---------------------------------------------------------------------------*/
FoamFile
{
    version     2.0;
    format      ascii;
    class       volVectorField;
    location    "3.1";
    object      force.turbine;
}
// * * * * * * * * * * * * * * * * * * * * * * * * * * * * * * * * * * * * * //

dimensions      [1 -2 -2 0 0 0 0];


internalField   nonuniform List<vector> 
28582
(
(0 0 0)
(0 0 0)
(0 0 0)
(0 0 0)
(0 0 0)
(0 0 0)
(0 0 0)
(0 0 0)
(0 0 0)
(0 0 0)
(0 0 0)
(0 0 0)
(0 0 0)
(0 0 0)
(0 0 0)
(0 0 0)
(0 0 0)
(0 0 0)
(0 0 0)
(0 0 0)
(0 0 0)
(0 0 0)
(0 0 0)
(0 0 0)
(0 0 0)
(0 0 0)
(0 0 0)
(0 0 0)
(0 0 0)
(0 0 0)
(0 0 0)
(0 0 0)
(0 0 0)
(0 0 0)
(0 0 0)
(0 0 0)
(0 0 0)
(0 0 0)
(0 0 0)
(0 0 0)
(0 0 0)
(0 0 0)
(0 0 0)
(0 0 0)
(0 0 0)
(0 0 0)
(0 0 0)
(0 0 0)
(0 0 0)
(0 0 0)
(0 0 0)
(0 0 0)
(0 0 0)
(0 0 0)
(0 0 0)
(0 0 0)
(0 0 0)
(0 0 0)
(0 0 0)
(0 0 0)
(0 0 0)
(0 0 0)
(0 0 0)
(0 0 0)
(0 0 0)
(0 0 0)
(0 0 0)
(0 0 0)
(0 0 0)
(0 0 0)
(0 0 0)
(0 0 0)
(0 0 0)
(0 0 0)
(0 0 0)
(0 0 0)
(0 0 0)
(0 0 0)
(0 0 0)
(0 0 0)
(0 0 0)
(0 0 0)
(0 0 0)
(0 0 0)
(0 0 0)
(0 0 0)
(0 0 0)
(0 0 0)
(0 0 0)
(0 0 0)
(0 0 0)
(0 0 0)
(0 0 0)
(0 0 0)
(0 0 0)
(0 0 0)
(0 0 0)
(0 0 0)
(0 0 0)
(0 0 0)
(0 0 0)
(0 0 0)
(0 0 0)
(0 0 0)
(0 0 0)
(0 0 0)
(0 0 0)
(0 0 0)
(0 0 0)
(0 0 0)
(0 0 0)
(0 0 0)
(0 0 0)
(0 0 0)
(0 0 0)
(0 0 0)
(0 0 0)
(0 0 0)
(0 0 0)
(0 0 0)
(0 0 0)
(0 0 0)
(0 0 0)
(0 0 0)
(0 0 0)
(0 0 0)
(0 0 0)
(0 0 0)
(0 0 0)
(0 0 0)
(0 0 0)
(0 0 0)
(0 0 0)
(0 0 0)
(0 0 0)
(0 0 0)
(0 0 0)
(0 0 0)
(0 0 0)
(0 0 0)
(0 0 0)
(0 0 0)
(0 0 0)
(0 0 0)
(0 0 0)
(0 0 0)
(0 0 0)
(0 0 0)
(0 0 0)
(0 0 0)
(0 0 0)
(0 0 0)
(0 0 0)
(0 0 0)
(0 0 0)
(0 0 0)
(0 0 0)
(0 0 0)
(0 0 0)
(0 0 0)
(0 0 0)
(0 0 0)
(0 0 0)
(0 0 0)
(0 0 0)
(0 0 0)
(0 0 0)
(0 0 0)
(0 0 0)
(0 0 0)
(0 0 0)
(0 0 0)
(0 0 0)
(0 0 0)
(0 0 0)
(0 0 0)
(0 0 0)
(0 0 0)
(0 0 0)
(0 0 0)
(0 0 0)
(0 0 0)
(0 0 0)
(0 0 0)
(0 0 0)
(0 0 0)
(0 0 0)
(0 0 0)
(0 0 0)
(0 0 0)
(0 0 0)
(0 0 0)
(0 0 0)
(0 0 0)
(0 0 0)
(0 0 0)
(0 0 0)
(0 0 0)
(0 0 0)
(0 0 0)
(0 0 0)
(0 0 0)
(0 0 0)
(0 0 0)
(0 0 0)
(0 0 0)
(0 0 0)
(0 0 0)
(0 0 0)
(0 0 0)
(0 0 0)
(0 0 0)
(0 0 0)
(0 0 0)
(0 0 0)
(0 0 0)
(0 0 0)
(-0.00126760981909 1.94964068396e-05 0)
(0 0 0)
(0 0 0)
(0 0 0)
(0 0 0)
(-2.48765785117e-05 1.18094040086e-07 0)
(0 0 0)
(-2.49374472322e-06 5.43564859755e-09 0)
(0 0 0)
(0 0 0)
(0 0 0)
(0 0 0)
(0 0 0)
(0 0 0)
(0 0 0)
(0 0 0)
(0 0 0)
(0 0 0)
(0 0 0)
(0 0 0)
(-0.0163432109373 0.000475651886347 0)
(0 0 0)
(0 0 0)
(0 0 0)
(-0.0307393057248 0.000608692838814 0)
(0 0 0)
(0 0 0)
(-0.0290116550417 0.00082577535453 0)
(-0.130020794577 0.00370085634837 0)
(-0.0833529257313 0.00165053594382 0)
(-0.810435532756 0.0115581373052 -0.000224694986867)
(-0.00616813976593 4.45963316084e-05 0)
(-0.0820440773942 0.00162461842255 0)
(0 0 0)
(0 0 0)
(0 0 0)
(0 0 0)
(0 0 0)
(-0.0163430984569 0.000475648612725 0)
(0 0 0)
(0 0 0)
(0 0 0)
(-0.0301855702345 0.000597727892806 0)
(0 0 0)
(0 0 0)
(0 0 0)
(0 0 0)
(0 0 0)
(0 0 0)
(0 0 0)
(0 0 0)
(-1.5607472081e-05 9.06515090157e-08 0)
(0 0 0)
(-9.4140842922e-06 5.46789987935e-08 0)
(-0.000139458259339 1.52938057696e-06 0)
(-0.000632594561296 6.9374007658e-06 0)
(-8.35128440742e-05 9.15850536635e-07 0)
(-0.000374561179939 4.10765627075e-06 0)
(0 0 0)
(0 0 0)
(-0.00011988307666 7.92166165237e-07 0)
(0 0 0)
(0 0 0)
(0 0 0)
(0 0 0)
(0 0 0)
(0 0 0)
(-0.00610756232763 9.39370444634e-05 0)
(-0.00025461924471 3.10634863201e-06 0)
(-0.00129772305383 1.99595618791e-05 0)
(-2.94249499236e-05 2.77018533214e-07 0)
(-0.000134123979421 1.47088175346e-06 0)
(-3.70434934584e-06 8.07441962245e-09 0)
(-2.88339801304e-05 2.71454901476e-07 0)
(0 0 0)
(0 0 0)
(0 0 0)
(0 0 0)
(0 0 0)
(-0.000136055806762 8.99032705058e-07 0)
(0 0 0)
(0 0 0)
(0 0 0)
(0 0 0)
(0 0 0)
(0 0 0)
(0 0 0)
(0 0 0)
(0 0 0)
(0 0 0)
(0 0 0)
(0 0 0)
(0 0 0)
(0 0 0)
(0 0 0)
(0 0 0)
(0 0 0)
(0 0 0)
(0 0 0)
(0 0 0)
(-0.0052212329425 3.99177073752e-05 0)
(0 0 0)
(0 0 0)
(0 0 0)
(0 0 0)
(0 0 0)
(-0.00484866288385 3.50563680512e-05 0)
(0 0 0)
(0 0 0)
(0 0 0)
(0 0 0)
(0 0 0)
(0 0 0)
(0 0 0)
(0 0 0)
(0 0 0)
(0 0 0)
(0 0 0)
(0 0 0)
(0 0 0)
(0 0 0)
(0 0 0)
(0 0 0)
(0 0 0)
(0 0 0)
(0 0 0)
(0 0 0)
(0 0 0)
(0 0 0)
(-0.0366963635818 0.000853984363061 0)
(-0.00906260116491 0.000133199420114 0)
(-0.0149058244819 0.000219081380851 0)
(-0.0104041037815 0.00017186792087 0)
(-0.0196417184094 0.000457094893011 0)
(0 0 0)
(0 0 0)
(0 0 0)
(0 0 0)
(0 0 0)
(0 0 0)
(0 0 0)
(0 0 0)
(0 0 0)
(0 0 0)
(-0.00545648298466 3.9450974497e-05 0)
(0 0 0)
(-0.00810258727962 0.000133848609997 0)
(0 0 0)
(0 0 0)
(-0.132004086981 0.00305956539424 0)
(-0.102801723985 0.00238271862913 0)
(-0.201264511834 0.00398638330023 0)
(-0.0442997519032 0.000877213753169 0)
(-0.246611349391 0.00571591052729 0)
(-0.0533921613174 0.0012425228667 0)
(-0.106121913201 0.00210140232785 0)
(-0.279452654333 0.00647709999043 0)
(-1.28947135727 -0.0520946120174 -0.0040995535203)
(-0.422302707409 0.00836441777596 0)
(-0.421376296309 0.00834606864077 0)
(-0.684515676437 -0.0253940393816 -0.00205768004933)
(-0.227805526217 0.00451207287929 0)
(-0.522052563065 0.012100034116 0)
(-0.0623543155152 0.00144523635816 0)
(-0.00918132319885 0.000151668511019 0)
(-0.0209120305579 0.00041409533968 0)
(-0.020868666368 0.000413236651716 0)
(-0.0252207351449 0.000586927731698 0)
(-0.0252208446086 0.000586930279098 0)
(-0.0501198138489 0.000992461314695 0)
(-0.132004086981 0.00305956539424 0)
(-0.102800390969 0.00238268773275 0)
(-0.199246522136 0.00394641360881 0)
(-0.0438431935458 0.000868173086956 0)
(-0.0533927364569 0.00124253625114 0)
(-0.105927053654 0.00209754376279 0)
(-0.246599715376 0.00571564087634 0)
(0 0 0)
(0 0 0)
(0 0 0)
(0 0 0)
(0 0 0)
(0 0 0)
(0 0 0)
(0 0 0)
(0 0 0)
(0 0 0)
(0 0 0)
(0 0 0)
(0 0 0)
(0 0 0)
(0 0 0)
(0 0 0)
(0 0 0)
(0 0 0)
(0 0 0)
(0 0 0)
(0 0 0)
(0 0 0)
(0 0 0)
(-0.00540492870434 3.90782313576e-05 0)
(0 0 0)
(-0.00810246159593 0.000133846533798 0)
(0 0 0)
(0 0 0)
(0 0 0)
(-0.0366946468956 0.000853944412967 0)
(-0.014644177131 0.000215235765803 0)
(-0.00888404467163 0.000130575049811 0)
(-0.0196418374051 0.000457097662234 0)
(0 0 0)
(-0.0104037928519 0.000171862784549 0)
(0 0 0)
(0 0 0)
(0 0 0)
(0 0 0)
(0 0 0)
(0 0 0)
(0 0 0)
(0 0 0)
(0 0 0)
(0 0 0)
(0 0 0)
(0 0 0)
(0 0 0)
(0 0 0)
(0 0 0)
(0 0 0)
(0 0 0)
(0 0 0)
(0 0 0)
(0 0 0)
(0 0 0)
(0 0 0)
(0 0 0)
(0 0 0)
(0 0 0)
(0 0 0)
(0 0 0)
(0 0 0)
(0 0 0)
(0 0 0)
(0 0 0)
(0 0 0)
(0 0 0)
(0 0 0)
(0 0 0)
(0 0 0)
(-0.0152674565136 0.000307074883454 0)
(0 0 0)
(0 0 0)
(0 0 0)
(0 0 0)
(0 0 0)
(0 0 0)
(0 0 0)
(-0.00340679531428 6.8520992554e-05 0)
(0 0 0)
(0 0 0)
(0 0 0)
(0 0 0)
(0 0 0)
(0 0 0)
(0 0 0)
(0 0 0)
(0 0 0)
(0 0 0)
(0 0 0)
(0 0 0)
(0 0 0)
(0 0 0)
(0 0 0)
(0 0 0)
(0 0 0)
(0 0 0)
(0 0 0)
(0 0 0)
(0 0 0)
(0 0 0)
(0 0 0)
(0 0 0)
(0 0 0)
(0 0 0)
(0 0 0)
(-0.327358213908 0.00914540414935 0)
(-0.00783688768869 0.000157623594442 0)
(0 0 0)
(0 0 0)
(0 0 0)
(0 0 0)
(0 0 0)
(0 0 0)
(-0.0718697750019 0.00202628702071 0)
(0 0 0)
(0 0 0)
(0 0 0)
(0 0 0)
(0 0 0)
(0 0 0)
(0 0 0)
(0 0 0)
(0 0 0)
(0 0 0)
(0 0 0)
(0 0 0)
(0 0 0)
(0 0 0)
(0 0 0)
(0 0 0)
(0 0 0)
(0 0 0)
(0 0 0)
(0 0 0)
(0 0 0)
(0 0 0)
(0 0 0)
(0 0 0)
(0 0 0)
(0 0 0)
(0 0 0)
(-1.54321973339 0.0552599277008 0)
(-0.0440914038675 0.00161943415932 0)
(0 0 0)
(0 0 0)
(0 0 0)
(0 0 0)
(0 0 0)
(0 0 0)
(-0.338615142207 0.0119928019211 0)
(-0.00668702002971 0.000266837489983 0)
(0 0 0)
(0 0 0)
(0 0 0)
(0 0 0)
(0 0 0)
(0 0 0)
(0 0 0)
(0 0 0)
(0 0 0)
(0 0 0)
(0 0 0)
(0 0 0)
(0 0 0)
(0 0 0)
(0 0 0)
(0 0 0)
(0 0 0)
(0 0 0)
(0 0 0)
(0 0 0)
(0 0 0)
(0 0 0)
(0 0 0)
(0 0 0)
(0 0 0)
(0 0 0)
(0 0 0)
(0 0 0)
(0 0 0)
(0 0 0)
(0 0 0)
(0 0 0)
(0 0 0)
(-2.61102175308 0.0743190076794 0)
(-0.0788600388164 0.00224463845369 0)
(0 0 0)
(0 0 0)
(0 0 0)
(0 0 0)
(0 0 0)
(0 0 0)
(-2.61153286508 0.0743335557529 0)
(-0.582714053207 0.016586123859 0)
(-0.0163431403541 0.000475649832099 0)
(0 0 0)
(0 0 0)
(0 0 0)
(0 0 0)
(0 0 0)
(0 0 0)
(-0.0478319107049 0.0013614670712 0)
(-0.0788615747144 0.00224468217083 0)
(-0.016343149056 0.000475650085359 0)
(0 0 0)
(0 0 0)
(0 0 0)
(0 0 0)
(0 0 0)
(0 0 0)
(0 0 0)
(0 0 0)
(0 0 0)
(0 0 0)
(0 0 0)
(0 0 0)
(0 0 0)
(0 0 0)
(0 0 0)
(0 0 0)
(0 0 0)
(0 0 0)
(0 0 0)
(0 0 0)
(0 0 0)
(0 0 0)
(0 0 0)
(0 0 0)
(0 0 0)
(0 0 0)
(-0.0363472781986 0.000560028858762 0)
(-0.00113721273238 1.74908412351e-05 0)
(0 0 0)
(0 0 0)
(0 0 0)
(0 0 0)
(0 0 0)
(0 0 0)
(-0.0169719305663 0.000261498835047 0)
(-0.0299834100886 0.000461976130427 0)
(-0.00744631297605 0.000114527629125 0)
(-0.000194333567115 1.2841218371e-06 0)
(0 0 0)
(0 0 0)
(0 0 0)
(0 0 0)
(0 0 0)
(0 0 0)
(-0.000462476698528 5.64220454523e-06 0)
(-0.000863169346879 1.32759312091e-05 0)
(-0.00016616749546 1.09800541772e-06 0)
(0 0 0)
(0 0 0)
(0 0 0)
(0 0 0)
(0 0 0)
(0 0 0)
(0 0 0)
(0 0 0)
(0 0 0)
(0 0 0)
(0 0 0)
(0 0 0)
(0 0 0)
(0 0 0)
(0 0 0)
(0 0 0)
(0 0 0)
(0 0 0)
(0 0 0)
(0 0 0)
(0 0 0)
(0 0 0)
(0 0 0)
(0 0 0)
(0 0 0)
(0 0 0)
(-0.000191881740005 1.23623323028e-06 0)
(-0.00019155137628 1.23410480152e-06 0)
(-2.46955173875e-05 1.17234507106e-07 0)
(0 0 0)
(0 0 0)
(0 0 0)
(0 0 0)
(0 0 0)
(0 0 0)
(0 0 0)
(-2.47058263827e-05 1.17283445946e-07 0)
(-2.46944367492e-05 1.17229377102e-07 0)
(-2.48369079755e-06 5.41373392183e-09 0)
(0 0 0)
(0 0 0)
(0 0 0)
(0 0 0)
(0 0 0)
(0 0 0)
(0 0 0)
(0 0 0)
(0 0 0)
(0 0 0)
(0 0 0)
(0 0 0)
(0 0 0)
(0 0 0)
(0 0 0)
(0 0 0)
(0 0 0)
(0 0 0)
(0 0 0)
(0 0 0)
(0 0 0)
(0 0 0)
(0 0 0)
(0 0 0)
(0 0 0)
(0 0 0)
(0 0 0)
(0 0 0)
(0 0 0)
(0 0 0)
(0 0 0)
(0 0 0)
(0 0 0)
(0 0 0)
(0 0 0)
(0 0 0)
(-0.00340675044699 6.85200901366e-05 0)
(-0.00926058104857 0.000186258388467 0)
(-0.00206631977524 4.15599614511e-05 0)
(-0.0880663659818 0.00213101484344 0)
(-0.0180362620558 0.000362763965551 0)
(-0.0534149383701 0.00129252553185 0)
(-0.0109395554291 0.000220027658533 0)
(0 0 0)
(0 0 0)
(0 0 0)
(-0.00244081578246 4.90922126594e-05 0)
(0 0 0)
(0 0 0)
(0 0 0)
(0 0 0)
(0 0 0)
(0 0 0)
(-0.0180370765352 0.000362780347204 0)
(-0.00402462358015 8.09473939372e-05 0)
(-0.00402462665271 8.09474557357e-05 0)
(0 0 0)
(0 0 0)
(0 0 0)
(0 0 0)
(0 0 0)
(0 0 0)
(0 0 0)
(0 0 0)
(-0.0718638188087 0.00202611909258 0)
(-0.198519268833 0.00554603143523 0)
(-0.0435864326232 0.0012288701711 0)
(-0.816576147722 0.0263522967597 0)
(-0.18014608016 0.00587546557058 0)
(-0.49524658851 0.0159824470823 0)
(-0.109261071293 0.0035635505475 0)
(0 0 0)
(-0.00475346620327 9.56066309459e-05 0)
(0 0 0)
(-0.0232143454618 0.000781076884181 0)
(0 0 0)
(-0.012403900289 0.000405803221435 0)
(0 0 0)
(-0.0151767241991 0.000417271909857 0)
(-0.0151781767262 0.00041731184593 0)
(-0.00288374698786 5.8000903387e-05 0)
(-0.18016071219 0.00587594279432 0)
(-0.038267137427 0.0012875476725 0)
(-0.0382781146151 0.00128791701429 0)
(-0.0075244232024 0.000246167342839 0)
(0 0 0)
(0 0 0)
(0 0 0)
(-0.00340613850712 6.85077821688e-05 0)
(0 0 0)
(0 0 0)
(0 0 0)
(-0.33857029293 0.0119912134851 0)
(-0.920340527368 0.0325958891642 0)
(-0.205375442175 0.00727382414564 0)
(-2.26834296064 0.0780421713752 0)
(-0.500453271951 0.0170775000972 0)
(-1.36027909164 0.0464182524555 0)
(-0.303553591913 0.0103584825716 0)
(0 0 0)
(-0.026743234846 0.000982252871117 0)
(0 0 0)
(-0.0677392675368 0.00231153918413 0)
(0 0 0)
(-0.0410862874573 0.00140203115329 0)
(0 0 0)
(-0.0755578542187 0.00267604801523 0)
(-0.0755700340288 0.00267647939006 0)
(-0.0142902657156 0.000572290767519 0)
(-0.500508395645 0.0170793811417 0)
(-0.111681887754 0.00381104002284 0)
(-0.111687657278 0.00381123690246 0)
(-0.0249208532556 0.000850400822108 0)
(0 0 0)
(0 0 0)
(0 0 0)
(-0.0136418928169 0.000512578466099 0)
(0 0 0)
(0 0 0)
(0 0 0)
(-7.2904916422 0.213311481131 0)
(-4.33153365691 0.124075653486 0)
(-4.42942348305 0.0877322069428 0)
(-2.10358108486 0.041664973278 0)
(-0.582646376767 0.0165841975457 0)
(-1.58388589582 0.0450830514589 0)
(-0.353418306829 0.0100595476956 0)
(-2.68778236581 0.0532360655142 0)
(-0.284651948926 0.00563801221206 0)
(-1.27582530856 0.0252698732513 0)
(-0.134823730235 0.00267041149871 0)
(0 0 0)
(-0.0478315326845 0.00136145631138 0)
(0 0 0)
(-0.103170073666 0.00204295066331 0)
(0 0 0)
(-0.0488583863764 0.000967482810753 0)
(0 0 0)
(0 0 0)
(0 0 0)
(0 0 0)
(0 0 0)
(0 0 0)
(0 0 0)
(0 0 0)
(0 0 0)
(0 0 0)
(0 0 0)
(0 0 0)
(0 0 0)
(0 0 0)
(0 0 0)
(0 0 0)
(0 0 0)
(0 0 0)
(0 0 0)
(0 0 0)
(0 0 0)
(0 0 0)
(0 0 0)
(0 0 0)
(0 0 0)
(0 0 0)
(0 0 0)
(0 0 0)
(0 0 0)
(0 0 0)
(0 0 0)
(0 0 0)
(0 0 0)
(0 0 0)
(0 0 0)
(0 0 0)
(0 0 0)
(0 0 0)
(0 0 0)
(0 0 0)
(0 0 0)
(0 0 0)
(0 0 0)
(-0.353432623865 0.0100599552096 0)
(-0.582711372198 0.0165860475479 0)
(-1.31966221508 0.0216558946423 -0.000224111810203)
(-2.72111570058 0.0538962884611 0)
(-0.137198516851 0.0027174481552 0)
(-0.288684033829 0.0057178744579 0)
(-1.58398471159 0.0450858641089 0)
(-0.582713272393 0.0165861016343 0)
(-0.353432550571 0.0100599531233 0)
(-2.7157004787 0.0537890308533 0)
(-1.27900386893 0.0253328300034 0)
(-0.28826750182 0.00570962433854 0)
(-0.135885801602 0.00269144761442 0)
(-0.130021158196 0.00370086669826 0)
(-0.130020667413 0.00370085272884 0)
(-0.0290115212785 0.00082577154715 0)
(-0.77553996272 0.0153608777219 0)
(-0.0805826245652 0.00159567906135 0)
(-0.0810431023448 0.00160479733908 0)
(-0.00601249061964 4.34709710936e-05 0)
(0 0 0)
(0 0 0)
(0 0 0)
(-0.0296657286048 0.000587434105428 0)
(0 0 0)
(0 0 0)
(0 0 0)
(0 0 0)
(0 0 0)
(0 0 0)
(0 0 0)
(0 0 0)
(0 0 0)
(0 0 0)
(0 0 0)
(0 0 0)
(0 0 0)
(0 0 0)
(0 0 0)
(0 0 0)
(0 0 0)
(0 0 0)
(0 0 0)
(0 0 0)
(0 0 0)
(0 0 0)
(0 0 0)
(0 0 0)
(0 0 0)
(0 0 0)
(0 0 0)
(0 0 0)
(0 0 0)
(0 0 0)
(0 0 0)
(0 0 0)
(0 0 0)
(0 0 0)
(0 0 0)
(0 0 0)
(0 0 0)
(0 0 0)
(0 0 0)
(0 0 0)
(0 0 0)
(0 0 0)
(0 0 0)
(0 0 0)
(0 0 0)
(-0.0788616572296 0.00224468451951 0)
(0 0 0)
(0 0 0)
(-0.0497174727328 0.000984494246137 0)
(-0.104692481981 0.00207309705138 0)
(0 0 0)
(0 0 0)
(-0.0478320767111 0.00136147179632 0)
(0 0 0)
(0 0 0)
(-0.104575270542 0.00207077605674 0)
(-0.049308994548 0.000976405652722 0)
(0 0 0)
(0 0 0)
(0 0 0)
(0 0 0)
(0 0 0)
(-0.0298823567056 0.000591723726501 0)
(0 0 0)
(0 0 0)
(0 0 0)
(0 0 0)
(0 0 0)
(0 0 0)
(0 0 0)
(0 0 0)
(0 0 0)
(0 0 0)
(0 0 0)
(0 0 0)
(0 0 0)
(0 0 0)
(0 0 0)
(0 0 0)
(0 0 0)
(0 0 0)
(0 0 0)
(0 0 0)
(0 0 0)
(0 0 0)
(0 0 0)
(0 0 0)
(0 0 0)
(0 0 0)
(0 0 0)
(0 0 0)
(0 0 0)
(0 0 0)
(0 0 0)
(0 0 0)
(0 0 0)
(0 0 0)
(0 0 0)
(0 0 0)
(0 0 0)
(0 0 0)
(0 0 0)
(0 0 0)
(0 0 0)
(0 0 0)
(0 0 0)
(0 0 0)
(0 0 0)
(0 0 0)
(0 0 0)
(0 0 0)
(0 0 0)
(0 0 0)
(0 0 0)
(0 0 0)
(0 0 0)
(0 0 0)
(0 0 0)
(0 0 0)
(0 0 0)
(0 0 0)
(0 0 0)
(0 0 0)
(0 0 0)
(0 0 0)
(0 0 0)
(0 0 0)
(0 0 0)
(0 0 0)
(0 0 0)
(0 0 0)
(0 0 0)
(0 0 0)
(0 0 0)
(0 0 0)
(0 0 0)
(0 0 0)
(0 0 0)
(0 0 0)
(0 0 0)
(0 0 0)
(0 0 0)
(0 0 0)
(0 0 0)
(0 0 0)
(0 0 0)
(0 0 0)
(0 0 0)
(0 0 0)
(0 0 0)
(0 0 0)
(0 0 0)
(0 0 0)
(0 0 0)
(0 0 0)
(0 0 0)
(0 0 0)
(0 0 0)
(0 0 0)
(0 0 0)
(0 0 0)
(0 0 0)
(0 0 0)
(0 0 0)
(0 0 0)
(0 0 0)
(0 0 0)
(0 0 0)
(0 0 0)
(0 0 0)
(0 0 0)
(0 0 0)
(0 0 0)
(0 0 0)
(0 0 0)
(0 0 0)
(0 0 0)
(0 0 0)
(0 0 0)
(0 0 0)
(0 0 0)
(0 0 0)
(0 0 0)
(0 0 0)
(0 0 0)
(0 0 0)
(0 0 0)
(0 0 0)
(0 0 0)
(0 0 0)
(0 0 0)
(0 0 0)
(0 0 0)
(0 0 0)
(0 0 0)
(0 0 0)
(0 0 0)
(0 0 0)
(0 0 0)
(0 0 0)
(0 0 0)
(0 0 0)
(0 0 0)
(0 0 0)
(0 0 0)
(0 0 0)
(0 0 0)
(0 0 0)
(0 0 0)
(0 0 0)
(0 0 0)
(0 0 0)
(0 0 0)
(0 0 0)
(0 0 0)
(0 0 0)
(0 0 0)
(0 0 0)
(0 0 0)
(0 0 0)
(0 0 0)
(0 0 0)
(0 0 0)
(0 0 0)
(0 0 0)
(0 0 0)
(0 0 0)
(0 0 0)
(0 0 0)
(0 0 0)
(0 0 0)
(0 0 0)
(0 0 0)
(0 0 0)
(0 0 0)
(0 0 0)
(-0.00166313035543 1.82599044041e-05 0)
(-0.00251099888324 2.75688549711e-05 0)
(-0.000971272395522 1.06515393472e-05 0)
(-0.0015021672415 1.64926520277e-05 0)
(-0.0936045485758 0.00144223312204 0)
(-0.0551917079901 0.000850378646511 0)
(-0.0024676147499 2.70925302351e-05 0)
(-0.00149601805352 1.64251386278e-05 0)
(-0.00149603375035 1.6425310967e-05 0)
(-0.000906106897222 9.936896501e-06 0)
(-0.0082473714342 0.000126848267043 0)
(-0.0213812333076 0.000329436158128 0)
(-0.00488776684869 7.51760435934e-05 0)
(-0.000550070144288 6.03238989664e-06 0)
(-0.000122774790057 1.34641992624e-06 0)
(-0.000333666995163 3.65918679893e-06 0)
(-7.46715596491e-05 8.18891857104e-07 0)
(0 0 0)
(-0.000641610384794 7.8276311885e-06 0)
(0 0 0)
(-1.4493062724e-05 8.4178783045e-08 0)
(0 0 0)
(-8.82712832e-06 5.12698339826e-08 0)
(0 0 0)
(0 0 0)
(0 0 0)
(0 0 0)
(0 0 0)
(0 0 0)
(0 0 0)
(0 0 0)
(0 0 0)
(0 0 0)
(0 0 0)
(0 0 0)
(0 0 0)
(0 0 0)
(0 0 0)
(0 0 0)
(0 0 0)
(0 0 0)
(0 0 0)
(0 0 0)
(0 0 0)
(0 0 0)
(0 0 0)
(0 0 0)
(0 0 0)
(0 0 0)
(0 0 0)
(0 0 0)
(0 0 0)
(0 0 0)
(0 0 0)
(0 0 0)
(0 0 0)
(0 0 0)
(0 0 0)
(0 0 0)
(0 0 0)
(0 0 0)
(0 0 0)
(0 0 0)
(0 0 0)
(0 0 0)
(0 0 0)
(-0.0283107152089 0.00043620370809 0)
(-0.00368433619007 5.66667409908e-05 0)
(-0.00627330094274 9.64861786058e-05 0)
(-0.000346345896462 3.79823102246e-06 0)
(-0.000551080008798 6.04346465961e-06 0)
(-7.72093579067e-05 8.46722832349e-07 0)
(-0.000123961236345 1.35943118794e-06 0)
(-0.0192693792352 0.000296897291819 0)
(-0.00645431385761 9.92702383207e-05 0)
(-0.00412278056034 6.34102118053e-05 0)
(-0.000549829351201 6.02974921926e-06 0)
(-0.000333394030434 3.65619330857e-06 0)
(-0.000122913832866 1.34794475075e-06 0)
(-7.4379458837e-05 8.15688509302e-07 0)
(-0.00175418763689 2.69801916385e-05 0)
(-0.00160507059943 2.46867048059e-05 0)
(-0.000358555364538 4.37436678205e-06 0)
(-0.000122701349708 1.34561453657e-06 0)
(-2.6726158857e-05 2.51611008489e-07 0)
(-2.66661179822e-05 2.51045759096e-07 0)
(-3.39677035928e-06 7.40398560756e-09 0)
(0 0 0)
(0 0 0)
(0 0 0)
(0 0 0)
(0 0 0)
(0 0 0)
(0 0 0)
(0 0 0)
(0 0 0)
(0 0 0)
(0 0 0)
(0 0 0)
(0 0 0)
(0 0 0)
(0 0 0)
(0 0 0)
(0 0 0)
(0 0 0)
(0 0 0)
(0 0 0)
(0 0 0)
(0 0 0)
(0 0 0)
(0 0 0)
(0 0 0)
(0 0 0)
(0 0 0)
(0 0 0)
(0 0 0)
(0 0 0)
(0 0 0)
(0 0 0)
(0 0 0)
(0 0 0)
(0 0 0)
(0 0 0)
(0 0 0)
(0 0 0)
(0 0 0)
(0 0 0)
(0 0 0)
(0 0 0)
(0 0 0)
(0 0 0)
(0 0 0)
(0 0 0)
(0 0 0)
(0 0 0)
(0 0 0)
(-0.000831080030691 1.27823831518e-05 0)
(0 0 0)
(0 0 0)
(-9.31386760745e-06 5.40969190272e-08 0)
(-1.48836899495e-05 8.64476288434e-08 0)
(0 0 0)
(0 0 0)
(-0.00051343820388 6.26393367893e-06 0)
(0 0 0)
(0 0 0)
(-1.4572310862e-05 8.46390730432e-08 0)
(-8.79068010205e-06 5.10581350002e-08 0)
(0 0 0)
(0 0 0)
(0 0 0)
(0 0 0)
(0 0 0)
(0 0 0)
(0 0 0)
(0 0 0)
(0 0 0)
(0 0 0)
(0 0 0)
(0 0 0)
(0 0 0)
(0 0 0)
(0 0 0)
(0 0 0)
(0 0 0)
(0 0 0)
(0 0 0)
(0 0 0)
(0 0 0)
(0 0 0)
(0 0 0)
(0 0 0)
(0 0 0)
(0 0 0)
(0 0 0)
(0 0 0)
(0 0 0)
(0 0 0)
(0 0 0)
(0 0 0)
(0 0 0)
(0 0 0)
(0 0 0)
(0 0 0)
(0 0 0)
(0 0 0)
(0 0 0)
(0 0 0)
(0 0 0)
(0 0 0)
(0 0 0)
(0 0 0)
(0 0 0)
(0 0 0)
(0 0 0)
(0 0 0)
(0 0 0)
(0 0 0)
(0 0 0)
(0 0 0)
(0 0 0)
(0 0 0)
(0 0 0)
(0 0 0)
(0 0 0)
(0 0 0)
(0 0 0)
(0 0 0)
(0 0 0)
(0 0 0)
(0 0 0)
(0 0 0)
(0 0 0)
(0 0 0)
(0 0 0)
(0 0 0)
(0 0 0)
(0 0 0)
(0 0 0)
(0 0 0)
(0 0 0)
(0 0 0)
(0 0 0)
(0 0 0)
(0 0 0)
(0 0 0)
(0 0 0)
(0 0 0)
(0 0 0)
(0 0 0)
(0 0 0)
(0 0 0)
(0 0 0)
(0 0 0)
(0 0 0)
(0 0 0)
(0 0 0)
(0 0 0)
(0 0 0)
(0 0 0)
(0 0 0)
(0 0 0)
(0 0 0)
(0 0 0)
(0 0 0)
(0 0 0)
(0 0 0)
(0 0 0)
(0 0 0)
(0 0 0)
(0 0 0)
(0 0 0)
(0 0 0)
(0 0 0)
(0 0 0)
(0 0 0)
(0 0 0)
(0 0 0)
(0 0 0)
(0 0 0)
(0 0 0)
(0 0 0)
(0 0 0)
(0 0 0)
(0 0 0)
(0 0 0)
(0 0 0)
(0 0 0)
(0 0 0)
(0 0 0)
(0 0 0)
(0 0 0)
(0 0 0)
(0 0 0)
(0 0 0)
(0 0 0)
(0 0 0)
(0 0 0)
(0 0 0)
(0 0 0)
(0 0 0)
(0 0 0)
(0 0 0)
(0 0 0)
(0 0 0)
(0 0 0)
(0 0 0)
(0 0 0)
(0 0 0)
(0 0 0)
(0 0 0)
(0 0 0)
(0 0 0)
(0 0 0)
(0 0 0)
(0 0 0)
(0 0 0)
(0 0 0)
(0 0 0)
(0 0 0)
(0 0 0)
(0 0 0)
(0 0 0)
(0 0 0)
(0 0 0)
(0 0 0)
(0 0 0)
(0 0 0)
(0 0 0)
(0 0 0)
(0 0 0)
(0 0 0)
(0 0 0)
(0 0 0)
(0 0 0)
(0 0 0)
(0 0 0)
(0 0 0)
(0 0 0)
(0 0 0)
(0 0 0)
(0 0 0)
(0 0 0)
(0 0 0)
(0 0 0)
(0 0 0)
(0 0 0)
(0 0 0)
(0 0 0)
(0 0 0)
(0 0 0)
(0 0 0)
(-7.22359009786 0.168022500699 0)
(-5.61245225039 0.130084341135 0)
(-6.4284836395 0.12732696685 0)
(-3.90983579357 0.077440895924 0)
(-4.95312721186 0.114802631928 0)
(-5.68873724344 0.112675041119 0)
(-8.19375258111 0.190895026545 0)
(-5.61280263662 0.13009246232 0)
(-2.65125852607 0.0614503612959 0)
(-3.04996907114 0.0604097844205 0)
(-3.05739937193 0.0605569540666 0)
(-3.85760259187 0.0894107725353 0)
(-3.85748417577 0.0894080279095 0)
(-4.43830895773 0.0879081987635 0)
(-1.60801702237 0.0372703099387 0)
(-3.40410953642 0.0788997975289 0)
(-1.44063263708 0.0285341605128 0)
(-2.37616789022 0.0470640149611 0)
(-3.00420001383 0.0696307713637 0)
(-1.27333829853 0.0252206138207 0)
(-1.8220994191 0.0422322706443 0)
(-0.759574760964 0.0176052780344 0)
(-0.358798744613 0.00831616844309 0)
(-0.682009411884 0.0135083473254 0)
(-0.251201729888 0.00497547417519 0)
(-0.316639905472 0.00733901896047 0)
(-0.601825606384 0.0119201717435 0)
(-0.86070624142 0.0199492840795 0)
(-1.25235464377 0.0290268355853 0)
(-1.60806142138 0.0372713390105 0)
(-1.8531156729 0.0367040831219 0)
(-0.68316148633 0.013531166104 0)
(-2.33972870144 0.0542297828084 0)
(-0.860727898843 0.0199497860511 0)
(-0.993057124093 0.0196691721734 0)
(-0.591570323173 0.0137113034182 0)
(-0.169486851222 0.00392833371022 0)
(-0.195864869098 0.00387943426368 0)
(-0.323104440374 0.00639962869557 0)
(-0.24660283368 0.00571571315177 0)
(-0.406578928856 0.00942360838366 0)
(-0.469307493207 0.00929542688148 0)
(-0.0366945966502 0.000853943243674 0)
(-0.131995623534 0.00305936923008 0)
(-0.0335518053517 0.000664385325735 0)
(-0.0911068735455 0.00180407787964 0)
(-0.116486370438 0.00269989873831 0)
(-0.0296147465057 0.000586424569334 0)
(-0.041579814643 0.000967630251562 0)
(-0.00918118497262 0.000151666227626 0)
(0 0 0)
(-0.00873891225673 0.000128441936685 0)
(0 0 0)
(0 0 0)
(-0.00598034169057 4.32385307864e-05 0)
(-0.0104034331522 0.000171856842583 0)
(-0.0285775794503 0.000665046985658 0)
(-0.0623505561216 0.00144514922366 0)
(-0.0710309804742 0.00140653954698 0)
(-0.0144133461563 0.000211843080699 0)
(-0.090720021736 0.00210269125309 0)
(-0.0196408906177 0.000457075628944 0)
(-0.0230886087864 0.000457195453673 0)
(-0.00522093032984 3.99153938213e-05 0)
(0 0 0)
(0 0 0)
(0 0 0)
(0 0 0)
(0 0 0)
(-0.00466204617351 3.37071086287e-05 0)
(0 0 0)
(0 0 0)
(0 0 0)
(0 0 0)
(0 0 0)
(0 0 0)
(0 0 0)
(0 0 0)
(0 0 0)
(0 0 0)
(0 0 0)
(0 0 0)
(0 0 0)
(0 0 0)
(0 0 0)
(0 0 0)
(0 0 0)
(0 0 0)
(0 0 0)
(0 0 0)
(0 0 0)
(0 0 0)
(0 0 0)
(0 0 0)
(0 0 0)
(0 0 0)
(0 0 0)
(0 0 0)
(0 0 0)
(0 0 0)
(0 0 0)
(0 0 0)
(0 0 0)
(0 0 0)
(0 0 0)
(0 0 0)
(0 0 0)
(0 0 0)
(0 0 0)
(0 0 0)
(0 0 0)
(0 0 0)
(0 0 0)
(0 0 0)
(0 0 0)
(0 0 0)
(0 0 0)
(0 0 0)
(0 0 0)
(0 0 0)
(0 0 0)
(0 0 0)
(0 0 0)
(0 0 0)
(0 0 0)
(0 0 0)
(0 0 0)
(0 0 0)
(0 0 0)
(0 0 0)
(0 0 0)
(0 0 0)
(0 0 0)
(0 0 0)
(0 0 0)
(0 0 0)
(0 0 0)
(0 0 0)
(0 0 0)
(0 0 0)
(0 0 0)
(0 0 0)
(0 0 0)
(0 0 0)
(0 0 0)
(0 0 0)
(0 0 0)
(0 0 0)
(0 0 0)
(0 0 0)
(0 0 0)
(0 0 0)
(0 0 0)
(0 0 0)
(0 0 0)
(0 0 0)
(0 0 0)
(0 0 0)
(0 0 0)
(0 0 0)
(0 0 0)
(0 0 0)
(0 0 0)
(0 0 0)
(0 0 0)
(0 0 0)
(0 0 0)
(0 0 0)
(0 0 0)
(0 0 0)
(0 0 0)
(0 0 0)
(0 0 0)
(0 0 0)
(0 0 0)
(0 0 0)
(0 0 0)
(0 0 0)
(0 0 0)
(0 0 0)
(0 0 0)
(0 0 0)
(0 0 0)
(0 0 0)
(0 0 0)
(0 0 0)
(0 0 0)
(0 0 0)
(0 0 0)
(0 0 0)
(0 0 0)
(0 0 0)
(0 0 0)
(0 0 0)
(0 0 0)
(0 0 0)
(0 0 0)
(0 0 0)
(0 0 0)
(0 0 0)
(0 0 0)
(0 0 0)
(0 0 0)
(0 0 0)
(0 0 0)
(0 0 0)
(0 0 0)
(0 0 0)
(0 0 0)
(0 0 0)
(0 0 0)
(0 0 0)
(0 0 0)
(0 0 0)
(0 0 0)
(0 0 0)
(0 0 0)
(0 0 0)
(0 0 0)
(0 0 0)
(0 0 0)
(0 0 0)
(0 0 0)
(0 0 0)
(0 0 0)
(0 0 0)
(0 0 0)
(0 0 0)
(0 0 0)
(0 0 0)
(0 0 0)
(0 0 0)
(0 0 0)
(0 0 0)
(0 0 0)
(0 0 0)
(0 0 0)
(0 0 0)
(-1.25238723986 0.0290275910912 0)
(-1.92210912183 -0.0374269843416 -0.0040993299457)
(-1.8701541062 0.0370415580465 0)
(-0.690771959382 0.0136819043658 0)
(-2.50212712838 0.0167361687131 -0.00205758236637)
(-1.00908895076 0.019986709555 0)
(-0.860714932609 0.0199494855222 0)
(-1.60815552537 0.0372735201348 0)
(-3.40425501828 0.0789031694795 0)
(-2.39067591163 0.0473513708082 0)
(-1.45454702098 0.0288097583672 0)
(-3.00428668405 0.0696327801894 0)
(-1.82218840229 0.0422343330794 0)
(-1.29270838829 0.0256042711363 0)
(-0.591590868192 0.0137117796067 0)
(-0.169480069684 0.00392817652905 0)
(-0.32684664612 0.00647374939553 0)
(-0.198417457293 0.00392999258051 0)
(-0.246603956245 0.00571573917037 0)
(-0.477228757937 0.00945232089698 0)
(-0.406572041726 0.00942344875508 0)
(-0.759631999286 0.0176066046932 0)
(-0.358805455641 0.00831632399001 0)
(-0.689038021812 0.0136475608061 0)
(-0.254477422003 0.00504035478541 0)
(-0.8607279131 0.0199497863816 0)
(-0.316656649983 0.00733940706153 0)
(-0.611549167709 0.0121127632845 0)
(-1.60809933842 0.0372722178443 0)
(-3.40417732381 0.0789013686921 0)
(-2.3868837705 0.0472762610536 0)
(-1.45409653791 0.0288008357897 0)
(-3.0042436769 0.069631783378 0)
(-1.82215673636 0.0422335991327 0)
(-1.28473320837 0.0254463092396 0)
(-1.25238514955 0.0290275426425 0)
(-1.60808873833 0.0372719721577 0)
(-1.85963757898 0.0368332604778 0)
(-0.686061834723 0.0135886123984 0)
(-2.33971090962 0.0542293704332 0)
(-0.860748175199 0.0199502560126 0)
(-0.999278601923 0.0197923990408 0)
(-0.759589432851 0.0176056180966 0)
(-0.358792765416 0.00831602985841 0)
(-0.68905351676 0.0136478677097 0)
(-0.253944513063 0.00502979962455 0)
(-0.860712753021 0.0199494350042 0)
(-0.316639576364 0.00733901133247 0)
(-0.608424903242 0.0120508819544 0)
(-0.591574995437 0.013711411711 0)
(-0.169486078768 0.00392831580643 0)
(-0.324885532387 0.00643490622859 0)
(-0.197769937106 0.00391716735048 0)
(-0.406584084235 0.00942372787403 0)
(-0.246603172931 0.00571572101488 0)
(-0.473174754681 0.00937202452115 0)
(-0.279440673394 0.00647682229852 0)
(-0.975357619065 0.0226066517071 0)
(-0.415169737923 0.00822313727806 0)
(-0.416205078473 0.00824364394484 0)
(-0.522069026258 0.0121004156967 0)
(-0.522066277024 0.0121003519755 0)
(-0.222783418252 0.004412601556 0)
(-0.131997881965 0.00305942157556 0)
(-0.102799734344 0.00238267251362 0)
(-0.196260708604 0.0038872745331 0)
(-0.0431932898426 0.000855303839564 0)
(-0.246606550715 0.00571579930451 0)
(-0.0533903600079 0.00124248094728 0)
(-0.103573900443 0.00205094715059 0)
(-0.131997927276 0.00305942262577 0)
(-0.102797628129 0.00238262369618 0)
(-0.197064108873 0.0039031872312 0)
(-0.0433680887536 0.000858765168403 0)
(-0.246604974944 0.0057157627816 0)
(-0.0533892247585 0.00124245452817 0)
(-0.103804701708 0.00205551742548 0)
(-0.0623513335795 0.00144516724343 0)
(-0.00918101128692 0.00015166335847 0)
(-0.0204444593035 0.00040483659855 0)
(-0.020486881569 0.000405676634739 0)
(-0.0252197883489 0.000586905698208 0)
(-0.0252193678566 0.000586895912665 0)
(-0.0490300351328 0.000970881760936 0)
(0 0 0)
(-0.0366939906423 0.000853929140881 0)
(-0.00874960756022 0.000128599133079 0)
(-0.0144327945043 0.000212128926741 0)
(-0.0104033812852 0.000171855985778 0)
(-0.0196411827051 0.000457082426294 0)
(0 0 0)
(0 0 0)
(0 0 0)
(0 0 0)
(0 0 0)
(0 0 0)
(0 0 0)
(0 0 0)
(0 0 0)
(0 0 0)
(-0.00529785784617 3.830409723e-05 0)
(0 0 0)
(-0.00810231319449 0.000133844082318 0)
(0 0 0)
(0 0 0)
(0 0 0)
(0 0 0)
(0 0 0)
(0 0 0)
(0 0 0)
(0 0 0)
(0 0 0)
(0 0 0)
(0 0 0)
(0 0 0)
(0 0 0)
(0 0 0)
(0 0 0)
(0 0 0)
(0 0 0)
(0 0 0)
(0 0 0)
(0 0 0)
(0 0 0)
(0 0 0)
(0 0 0)
(0 0 0)
(0 0 0)
(0 0 0)
(0 0 0)
(0 0 0)
(0 0 0)
(0 0 0)
(0 0 0)
(0 0 0)
(0 0 0)
(0 0 0)
(0 0 0)
(0 0 0)
(0 0 0)
(0 0 0)
(0 0 0)
(0 0 0)
(0 0 0)
(0 0 0)
(0 0 0)
(0 0 0)
(0 0 0)
(0 0 0)
(0 0 0)
(0 0 0)
(0 0 0)
(0 0 0)
(0 0 0)
(0 0 0)
(0 0 0)
(0 0 0)
(0 0 0)
(0 0 0)
(0 0 0)
(0 0 0)
(0 0 0)
(0 0 0)
(0 0 0)
(0 0 0)
(0 0 0)
(0 0 0)
(0 0 0)
(0 0 0)
(0 0 0)
(0 0 0)
(0 0 0)
(0 0 0)
(0 0 0)
(0 0 0)
(0 0 0)
(0 0 0)
(0 0 0)
(0 0 0)
(0 0 0)
(0 0 0)
(0 0 0)
(0 0 0)
(0 0 0)
(0 0 0)
(0 0 0)
(0 0 0)
(0 0 0)
(0 0 0)
(0 0 0)
(0 0 0)
(0 0 0)
(0 0 0)
(0 0 0)
(0 0 0)
(0 0 0)
(0 0 0)
(0 0 0)
(0 0 0)
(0 0 0)
(0 0 0)
(0 0 0)
(0 0 0)
(0 0 0)
(0 0 0)
(0 0 0)
(0 0 0)
(0 0 0)
(0 0 0)
(0 0 0)
(0 0 0)
(0 0 0)
(0 0 0)
(0 0 0)
(0 0 0)
(0 0 0)
(0 0 0)
(0 0 0)
(0 0 0)
(0 0 0)
(0 0 0)
(0 0 0)
(0 0 0)
(0 0 0)
(0 0 0)
(0 0 0)
(0 0 0)
(0 0 0)
(0 0 0)
(0 0 0)
(0 0 0)
(0 0 0)
(0 0 0)
(0 0 0)
(0 0 0)
(0 0 0)
(0 0 0)
(0 0 0)
(0 0 0)
(0 0 0)
(0 0 0)
(0 0 0)
(0 0 0)
(0 0 0)
(0 0 0)
(0 0 0)
(0 0 0)
(0 0 0)
(0 0 0)
(0 0 0)
(0 0 0)
(0 0 0)
(0 0 0)
(0 0 0)
(0 0 0)
(0 0 0)
(0 0 0)
(0 0 0)
(0 0 0)
(0 0 0)
(0 0 0)
(0 0 0)
(0 0 0)
(0 0 0)
(0 0 0)
(0 0 0)
(0 0 0)
(0 0 0)
(0 0 0)
(0 0 0)
(0 0 0)
(0 0 0)
(0 0 0)
(0 0 0)
(0 0 0)
(0 0 0)
(0 0 0)
(0 0 0)
(0 0 0)
(0 0 0)
(-0.0285774857701 0.000665044805567 0)
(-0.0623479321665 0.00144508840613 0)
(-0.0719669522806 0.0014250734508 0)
(-0.0145937090339 0.000214494000703 0)
(-0.0907179356309 0.00210264290175 0)
(-0.0234387052712 0.000464127985757 0)
(-0.0196413045278 0.000457085261308 0)
(-0.0366944954579 0.000853940888765 0)
(-0.131995028534 0.00305935543928 0)
(-0.0923297825023 0.00182829364857 0)
(-0.0340105591094 0.00067346946477 0)
(-0.11648746815 0.00269992418087 0)
(-0.0415802163186 0.000967639599211 0)
(-0.0300714018447 0.000595467155954 0)
(-0.00522111042039 3.99167706613e-05 0)
(0 0 0)
(0 0 0)
(0 0 0)
(0 0 0)
(-0.00472867201629 3.41888208291e-05 0)
(0 0 0)
(-0.00918139574033 0.000151669709349 0)
(0 0 0)
(-0.00885544565602 0.000130154709975 0)
(0 0 0)
(-0.010403894574 0.000171864464922 0)
(0 0 0)
(-0.00607108961534 4.38946483031e-05 0)
(-0.0366940906448 0.000853931468102 0)
(-0.131992295015 0.00305929208229 0)
(-0.092167812354 0.00182508635202 0)
(-0.0340089196693 0.000673437000945 0)
(-0.116484720711 0.00269986050124 0)
(-0.0415800104307 0.000967634807864 0)
(-0.0300084895774 0.000594221381344 0)
(-0.0285775201706 0.000665045606122 0)
(-0.0623509618498 0.00144515862755 0)
(-0.071772336274 0.00142121970828 0)
(-0.0145509025091 0.000213864843115 0)
(-0.0907204034323 0.00210270009997 0)
(-0.0196411050127 0.000457080618265 0)
(-0.0233494590946 0.000462360752982 0)
(-0.00918133375362 0.000151668685376 0)
(0 0 0)
(-0.00885429972203 0.000130137867377 0)
(0 0 0)
(-0.0104038275238 0.000171863357303 0)
(0 0 0)
(-0.00606134425476 4.38241882701e-05 0)