/*--------------------------------*- C++ -*----------------------------------*\
| =========                 |                                                 |
| \\      /  F ield         | OpenFOAM: The Open Source CFD Toolbox           |
|  \\    /   O peration     | Version:  v1906                                 |
|   \\  /    A nd           | Web:      www.OpenFOAM.com                      |
|    \\/     M anipulation  |                                                 |
\*---------------------------------------------------------------------------*/
FoamFile
{
    version     2.0;
    format      ascii;
    class       volScalarField;
    location    "9.65";
    object      alpha.water;
}
// * * * * * * * * * * * * * * * * * * * * * * * * * * * * * * * * * * * * * //

dimensions      [0 0 0 0 0 0 0];


internalField   nonuniform List<scalar> 
28582
(
0.999997234229
0.999992187366
0.999996915758
0.99999473155
1.00000039355
1.00000047715
0.999998374698
0.999998380592
0.0527180280312
0.0552677001539
3.21873883802e-06
0.999998413007
0.881390855935
0.879353296269
0.999997851986
0.999998121146
0.876541527837
0.998841510195
0.998897529049
0.99999884769
0.999995463881
0.999998024131
0.99999830557
0.999996246946
0.999998525403
1.00000104781
1.00000088452
0.999989837734
0.999996803821
0.0568965694535
-1.29882177214e-29
6.33492537129e-26
0.999988783498
0.999998419644
0.876292425432
0.874917415412
0.998700074827
0.999994617373
0.999997849369
1.0000011418
0.998846892914
0.861209957675
0.998872456908
0.998774732556
0.053380531201
0.0547674915635
0.000312696630024
0.000483763421758
0.0542601658573
0.000454637621122
0.998964573533
0.999060093912
0.880732524606
0.883113088648
0.999094649457
0.882493890999
0.998937340521
0.999012685789
0.998876850393
0.880238774406
0.880743263265
0.998984465968
0.881805917417
0.998902899669
0.998907657579
0.998857720849
0.872972292196
0.877951404792
0.998947456863
0.874577887907
0.998821527312
0.998779978943
0.865941446401
0.868315583988
0.998867726115
0.869381010092
0.871358435991
0.998775849443
0.998910762901
0.870060201782
0.873246416981
0.99892716223
0.876526077136
0.998942929319
0.873890638576
0.0533712458462
9.39575985561e-05
0.0534794559176
0.0544858081324
8.29655697817e-05
8.0424530129e-05
0.0560259331323
0.000307753013676
0.000358954643965
0.0574852880321
0.000391183187725
0.0585736702824
0.000379997165557
0.99833881832
0.998438730599
0.876198987198
0.877577968142
0.998370335235
0.998413848772
0.877615070389
0.998305444833
0.998337258015
0.875793919266
0.876514611239
0.998348541343
0.998294364344
0.877273622535
0.880747469776
0.880459428937
0.998693577514
0.998504610159
0.878403770293
0.998504560721
0.878923735708
0.998786858854
0.863749711355
0.865404722262
0.998842336554
0.862565857293
0.998784340237
0.863292108101
0.998822053232
0.998715081459
0.861824046137
0.861860478738
0.998766330121
0.998783374908
0.862413706147
0.99882136886
0.998863143471
0.866909286082
0.870021726575
0.866891688169
0.998866188588
0.864180257542
0.864567276993
0.862368156265
0.998728287323
0.998843512753
0.862383332921
0.998806739772
0.863157815729
1.00000067807
0.999994444652
0.0600662334237
-6.46225658142e-27
0.999997337191
0.879868314278
1.00000120844
1.00000112938
0.860226510905
0.860720518097
0.85773192848
0.999998998138
0.999997962643
0.857773653615
0.857441356284
0.0539990832932
0.0590255395828
0.0603932806436
0.00037448747222
0.000369064407523
0.000351983968839
0.0614424782892
0.062221552683
0.998481235532
0.998687372189
0.877618497593
0.879199507523
0.998498139286
0.876935609842
0.99867087961
0.998599888528
0.998629210534
0.858683407129
0.860678809519
0.998530227772
0.998715342029
0.859185457887
0.998664637107
0.998658193447
0.861357252039
0.859334619672
0.99874877708
0.860357238562
0.998575615042
0.998576559445
0.998496805103
0.858188962065
0.858162132579
0.998536863521
0.859233925713
0.998514816979
0.998538265643
0.998495770809
0.857584776816
0.858070797993
0.998527113047
0.857060057976
0.998502959554
0.998575484117
0.998607840933
0.855362574342
0.857946723574
0.998609410536
0.856421809304
0.998539683653
1.00000689091
1.00000204306
1.00000150484
0.999997989618
0.0313951717791
0.0390282415671
0.0338814096754
0.0401762357555
0.0407719254917
1.51561293728e-08
1.90163550821e-05
6.71753373283e-07
9.98981707602e-06
5.68317243522e-06
1.12649210489e-05
1.00000137595
1.00000087828
0.950413375337
0.951599834005
1.0000036435
0.952304940391
1.00000160377
1.00000256769
0.951696047918
0.951137815676
1.00000962794
1.00000568994
1.00000851569
0.952193947239
0.952994503321
0.95112139664
0.943789439055
1.00000686982
1.00000188684
0.948584950197
0.907149705668
0.934055453693
0.893425089796
1.00000305693
1.00000155289
0.949362595626
0.936470863104
0.920495493841
0.999996608436
0.999998891286
0.999993428947
0.927467835983
0.890758476025
0.912210095762
0.883842169043
0.910356910645
0.883405118901
0.029959180415
0.0297214205738
0.0311411866505
1.12216673691e-05
1.94752039754e-05
1.16871213799e-05
2.8184603461e-05
0.000102871715749
0.000766184271637
0.000134483013415
0.000513206728383
0.0296206769719
0.0298534741315
0.033979920018
0.0319909844757
0.0358009140361
1.65533780678e-05
6.26022563764e-05
4.65829259578e-05
0.000148661567541
0.0435590519638
0.0400259191697
0.0431718096983
0.000209148618671
0.00046536787748
0.000300597268808
0.000508846527064
0.0373689940162
0.0381342999835
0.000158472149404
0.000271206984057
0.000341685835485
0.0430842541706
0.0405255613251
0.0432698559581
0.000363259978995
0.000503996338057
0.000400473700022
0.000508653958876
0.999717132862
0.999702576642
0.949664016159
0.950961125219
0.999720739285
0.950262834567
0.99969634306
0.999707745844
0.999745137676
0.951272278975
0.951118569752
0.99971397547
0.999733953694
0.950686465828
0.999870112085
0.999779838719
0.952103158926
0.953030923145
0.999757898939
0.99986572987
0.952991865255
0.999743406048
0.999760528389
0.951400999595
0.951704553166
0.999755884398
0.999747446963
0.951570731304
0.999752845211
0.999774835454
0.951641555811
0.951059251297
0.999768260812
0.999755736443
0.95152550703
0.999858691843
0.999784467794
0.952845255245
0.952022372069
0.99985859925
0.999770853056
0.9526217127
0.999948047013
0.999989939536
0.953272986703
0.951603356885
0.999966617827
0.99999785072
0.952488488541
0.999839048147
0.999785484758
0.951751040514
0.950919141298
0.999807396407
0.999854032382
0.952041742737
0.999929538853
0.999937177508
0.947911403649
0.948404563092
0.999966329314
0.999928084906
0.950428712484
0.999877487737
0.999985273501
0.941242733636
0.945912306056
0.999945338958
0.999959783067
0.936152036032
0.999771347121
0.999613748517
0.926328792114
0.900923302924
0.999813752628
0.919913390795
0.999514044924
0.999817556579
0.999907199026
0.940187604747
0.9215623962
0.999913953658
0.999782562932
0.92867488674
0.999666509092
0.999417555607
0.897561180452
0.907542016534
0.999636256399
0.914142693737
0.999424767013
0.99981418846
0.999818277982
0.947676934413
0.946922109302
0.99986347305
0.999780975114
0.943858477579
0.999848741874
0.999867258316
0.94300708351
0.929689242954
0.999863665039
0.999815970984
0.937644842432
0.999823052176
0.999727409393
0.924962103113
0.928169989233
0.999791383065
0.999775001655
0.932657060385
0.999635805093
0.999824846181
0.91603550047
0.920487835841
0.999703869342
0.999743518824
0.909837927328
0.999483365768
0.999310136888
0.903581480161
0.886951998846
0.999547422591
0.898463712694
0.999238381382
0.99955863067
0.999654357913
0.916356038426
0.903119869952
0.99971658627
0.999514582019
0.906196679417
0.999380170296
0.999125551571
0.885341339514
0.893519299216
0.999345117967
0.895805930099
0.999153275041
0.999467280272
0.999606574073
0.901537436558
0.909361635986
0.999463783316
0.999591969882
0.901137583307
0.999113265307
0.892676644139
0.999309540949
0.999995127847
0.999991799334
0.999995305313
0.999997800229
0.999997627622
0.999991354598
0.999996346383
0.999996033992
0.999996892076
0.999999015897
0.999997565344
0.999989802039
1.00000012379
0.999995791256
0.999947991454
0.999980869449
0.999988690829
0.999993313659
0.999996086658
0.999989477253
0.999996753505
0.999997800174
0.999987456699
0.999977137832
0.999976983781
0.999981996493
0.999995383811
0.999992010438
0.999997378986
0.999992182143
0.99998976201
0.999993255828
0.999996957368
0.999999079399
0.999999152426
0.999994537383
0.999997426164
0.999991799334
0.999991739339
0.999997036422
0.999999054023
0.999999065049
0.999996732518
0.999990244866
0.999998906825
0.999999057687
0.999998254518
0.999990356173
0.999996989445
0.999785183121
0.999948774865
0.999996464678
0.999999393294
0.999999003732
0.999963192808
0.999920830069
0.9999862692
0.999980817263
0.999912948167
0.999970322072
0.999996992668
0.999999227666
0.999997629564
0.999989349141
0.999994008553
0.999985868132
0.999979322091
0.999984462396
0.999995027082
0.999999179071
0.99999929212
0.999997980477
0.999998227287
0.999997614791
0.999997967713
0.999998570068
0.999999024135
0.999999037202
0.999998074078
0.999996891763
0.99999886425
0.999999055554
0.999997531746
0.999993477256
0.999986837202
0.999785364937
0.999974934704
0.999999743995
1.00000580288
1.00000582728
0.999999855136
0.999967290036
0.999964150984
0.999940301549
0.999961816316
0.999995132908
1.00000170081
1.00000667602
1.00000837923
1.00000578488
1.0000004546
0.999997413705
0.999997183606
0.999999070713
1.0000007697
1.00000263846
1.00000382015
1.00000384674
1.00000017398
1.00000057466
1.0000005264
1.00000064947
1.00000096662
1.00000143374
1.00000173608
1.00000172122
1.00000179282
1.00000063223
1.00000082847
1.00000125894
1.00000175161
1.00000194644
1.00000192484
1.00000220795
1.00000070073
1.00000068521
1.00000097412
1.00001333663
1.000000251
0.999985649971
0.99999336258
0.99999692912
0.999997772967
1.00001705979
1.00001770875
0.999987505538
0.999998036557
0.999997714488
0.999995805232
0.999995918191
0.999991214702
0.999983855822
0.999988610767
0.999985352571
0.999991040464
0.999988580959
0.999990449286
0.999992766682
0.999993518957
0.999992020199
0.999987680755
0.999986295519
0.999991325712
0.999991740167
0.999986724913
0.9999912055
0.999993038627
0.999993572414
0.999992160076
0.999990939371
0.999990730271
0.999989011716
0.999987594341
0.999986524351
0.999989575179
0.999991174057
0.99998954777
0.999986095362
0.999985035321
0.999985479545
0.999994081345
0.999998146966
0.999996291682
0.0560371169347
0.0579900801409
0.0551201466071
0.0538099264742
0.0562484159994
0.0605037054858
0.0640584969443
0.065094800321
0.0454363693699
0.0493942742359
0.0559321095821
0.0580801091637
0.0558508810405
0.0555119173096
0.0586472439762
0.0618105135587
0.0642244633001
0.0644843376768
0.0453542709661
0.0499225030628
0.0554354708834
0.0572365090866
0.0573157599714
0.0586956825794
0.0613183510885
0.0638052632287
0.0647799302642
0.0637930361923
0.0480247696416
0.0548357544316
0.0564324753147
0.0576432550402
0.0594695556596
0.0616542367579
0.0646369242757
0.0655476027031
0.065384441801
0.0553367508538
0.0563088252241
0.0571219088327
0.0614696614458
0.0636829349203
0.0654730430446
0.0663446256896
0.0622774293194
0.0640509254914
0.0654567747692
7.54626317253e-05
2.55935654552e-06
5.70793208455e-24
-1.97526299553e-25
4.0854795803e-07
2.27039366351e-06
3.84530436867e-06
-1.53698092691e-29
-2.30854483659e-28
9.78138310891e-05
0.000104120387482
0.000103557243514
3.50234408892e-05
-9.9845686419e-25
-5.10319861908e-27
1.92798555336e-05
3.24486645054e-05
-3.25741317985e-26
-2.31311214374e-27
5.48496140016e-05
7.94438318048e-05
0
-1.88445619041e-29
-2.02309669844e-29
-3.04204079074e-25
6.06679420681e-06
8.93565512776e-05
-6.64715785665e-24
-4.27623857921e-25
5.20119669244e-05
-1.05879118407e-23
-2.51745630786e-28
-3.27588188278e-27
-8.29107495925e-28
-1.32348898008e-24
6.17844136747e-05
-2.59267055876e-24
-8.03897140398e-26
5.67695741552e-05
-2.16755140247e-28
1.12036639376e-05
6.11542695127e-05
-1.7466615224e-26
-1.3558508957e-25
-3.75329991237e-26
6.73109906298e-05
-2.52048293352e-27
-4.18358550634e-26
9.94373763868e-05
0.999999465843
0.999998517017
0.999997000783
1.00000157024
0.999991861586
0.999999440374
0.999995603444
0.999974090641
0.999996749677
0.999997800174
0.999888836939
0.999843822361
0.999970646461
0.999928657391
0.999997130586
0.999992197433
0.999992804885
0.999996271995
0.999995501585
0.999992009698
0.999995743579
0.99999780563
0.999995357927
0.999995635121
0.999990158444
0.999985851617
0.99999578608
0.999993070744
0.999942753752
0.999997291966
0.999983325801
0.999990895692
0.999936859983
0.999988152605
0.999920966374
0.999845592299
0.999859515795
0.999816732146
0.999785131481
0.999833068112
0.999785594893
0.999794957133
0.999989498416
0.99998023232
0.999990970835
0.999977409843
0.999977371034
0.999974434271
0.999989729173
0.999926155343
0.999995080696
0.999994874962
0.99991784794
0.999813545932
0.999986473642
0.99996645144
0.999940145289
0.999982942991
0.999945103877
0.999991042896
0.999964906285
0.99999156838
0.999976295495
0.999847930928
0.999791726063
0.999828948821
0.999890654647
0.999920118748
0.999914993629
0.999925839868
0.999976963793
0.999989147346
0.999992460845
0.999990260419
0.999989014874
0.999997471074
0.999997824651
0.999841624664
0.999987858249
0.999970072472
0.999973506819
0.999956410175
0.999997417554
0.999997426975
0.999997690005
1.00000756884
0.841921683912
0.84211134472
1.00000957781
1.00001354005
1.00000955598
0.846701158166
0.859486927974
0.846345047259
0.859789575777
0.999985296428
1.00000072094
0.999996627113
0.862989407973
0.869920419582
0.862998101308
0.869567862849
0.999989514726
0.999995733252
0.999993729142
0.871627344143
0.875494220139
0.870863709312
0.873446972936
0.999995276126
0.999995087242
0.999999707016
0.876873651814
0.876135964626
0.874185328569
0.873234171448
0.999994640139
1
0.999999456035
0.87548928093
0.865024813686
0.871496410299
0.856245250667
1.00000785212
0.999996815916
1.00000562671
0.858547964042
0.847166397191
0.849599106996
0.840049887786
1.00002121425
1.0000244377
1.0000314827
0.846714674862
0.842065272823
0.840154294827
0.833573476583
0.999965192059
1.00000759714
0.999962987259
0.842704256278
0.805983579633
0.836249277807
0.831079988683
1
0.999989710665
0.888300711557
0.847787346745
0.88062480182
0.855152932963
0.99999188812
0.999989360457
0.999987870008
0.843207603394
0.844504855625
0.852459796647
0.853540740706
0.999997769028
0.999988040939
0.999989609633
0.848275234683
0.859078128832
0.855948010527
0.862136589045
0.999996569251
0.999989170356
0.999991642572
0.8621188138
0.868684941386
0.863854791578
0.868291558144
0.999996473128
0.999990988375
0.999992602829
0.870266272186
0.872316748016
0.869545265689
0.870862214466
0.999994413908
0.999991150962
0.999992808627
0.873346738562
0.87257385838
0.869353376348
0.860546778554
0.999984117394
0.999988860317
0.999984277626
0.869758044283
0.853012176136
0.856119812647
0.84122591174
0.999985012117
0.999984720059
0.99998666367
0.847186550694
0.839637975087
0.839786771931
0.840764570917
0.999993103803
0.999992649153
0.99999249916
0.839860695981
0.834191743296
0.841720028985
0.84086869522
0.999967170489
0.99998880244
0.999986392029
0.836978502475
0.833978809985
0.844635811049
0.839086375675
0.999991422256
0.999990665238
0.999985021031
0.87943936354
0.856890633366
0.876521878245
0.866770213022
0.999990454761
0.999993101123
0.999992565302
0.855809514297
0.857589220439
0.865755427282
0.869201302458
0.999990653133
0.999992922354
0.999993726824
0.859373895386
0.863741425198
0.869645932429
0.870684002251
0.99999273729
0.999991763085
0.999994564656
0.864989893491
0.868032756526
0.870272800929
0.868425667143
0.999992046124
0.999992502333
0.999992704447
0.868771048599
0.867895347006
0.867130378031
0.858977126799
0.999987498164
0.99998937098
0.999986206445
0.865500455884
0.85555917226
0.855682115378
0.845384488753
0.999985520103
0.999985509905
0.999986344379
0.851347772781
0.842213388515
0.844724377249
0.845244994786
0.999990832351
0.999988079257
0.999990756357
0.841299848045
0.842130402376
0.846375298902
0.847064606686
0.999993087008
0.99999353021
0.999993047554
0.842846433541
0.841669901295
0.846916305802
0.843308700762
0.999994297788
0.999993469883
0.999995446265
0.8460476816
0.839938830516
0.847594149383
0.838812742355
0.877358135041
0.869816053309
0.999990571475
0.999996928297
0.86878364185
0.871649463957
0.875839593546
0.999991899097
0.999996706395
0.999995819341
0.871507839307
0.870904250869
0.875172906964
0.872981401029
0.999992507759
0.999992691601
0.999993000782
0.87007319607
0.867279086883
0.871775646032
0.868681839627
0.999991860388
0.999991030771
0.99999009163
0.865774385103
0.858613468358
0.866927634095
0.859506548885
0.999992102766
0.999990639327
0.999990379873
0.855926857714
0.847146377233
0.858017502583
0.855045582612
0.99999329875
0.999992473913
0.999992884373
0.847443901307
0.848810287976
0.854852632957
0.853735778461
0.999990855842
0.99999093266
0.999989503448
0.848117575583
0.847204566905
0.852737485729
0.849133722507
0.999989298615
0.999987463199
0.999987280852
0.84688467952
0.843534661374
0.848015996639
0.844425144444
0.999991665056
0.999987360233
0.999991938979
0.847438454828
0.838552547516
0.847866812133
0.838834833354
0.999987945074
0.999996702385
0.873709765564
0.870634307619
0.877859739692
0.999991955362
0.999995557099
0.999992559862
0.869044920477
0.860736828278
0.875498975474
0.864226816561
0.999992550805
0.999992103244
0.99998997239
0.85959604312
0.857651419014
0.863712283456
0.862449967366
0.999988911285
0.99998850731
0.999986731565
0.856526827269
0.852907718456
0.859919633408
0.853453473695
0.999986165293
0.999985014959
0.99998572098
0.852122851332
0.849427356789
0.852908473158
0.850546779379
0.999986410371
0.999986288565
0.999989107163
0.848352166918
0.844987084802
0.849841859055
0.844971365201
0.999990627277
0.999989502372
0.999993240826
0.848002249834
0.838214220531
0.84791058826
0.837932950335
0.999993768815
0.855366300794
0.999996178066
0.85455580667
0.851447692459
0.999998716049
0.851380091181
0.844946943154
0.99999607437
0.848008061988
0.838726398474
0.00124357072232
0.00110232220132
0.001257544072
0.00123141933053
0.0537802323825
0.0540013338613
0.000545357325753
0.000429751330661
0.00060680325452
0.000479580477297
0.0579096764978
0.0565680572389
0.058079840029
0.000274188980321
0.000163020501371
0.000354413019971
0.00020133406048
0.0566142811162
0.0579907828521
0.0565820105495
9.7366137245e-05
4.91770037794e-05
0.000102174771278
4.61983033155e-05
0.0543500426843
0.0551996006169
0.0546415987288
5.55786686984e-05
7.95186707288e-05
4.88593865705e-05
4.97918592684e-05
0.0550254629166
0.0544324532814
0.0559291009682
2.07280390417e-05
1.75523027515e-05
7.30079750675e-05
4.35879739948e-05
0.0582302161196
0.0575302813966
0.0593302047599
0.000161884734829
0.000510204901967
0.000244043866244
0.000588659137703
0.0625307613948
0.061129508901
0.0629217165903
0.000646383061192
0.000695893870017
0.000684406102071
0.000722148311928
0.0650139441703
0.0642208643152
0.0656216342113
0.000573080251604
0.00051698797662
0.000579485586199
0.000540084640282
0.0659724357467
0.0644451747458
0.0680168683445
0.000850789730135
0.00246874885701
0.000856524537551
0.00139502099341
0.047367470038
0.0452361003002
0.0472143241665
0.00133479035968
0.00168867596149
0.00127374273864
0.00162336888211
0.0528717592126
0.0494469306562
0.0528714623433
0.00146661865451
0.00139114840124
0.00110162106756
0.000768499272838
0.0579823130021
0.0558312708896
0.0577565775118
0.00100252080691
0.000409959342765
0.000456245986249
0.000239791389585
0.0569605622219
0.05792025701
0.0572725153836
6.52393797699e-05
3.63246374079e-05
8.55200292885e-05
5.33652955704e-05
0.0555276227466
0.0566818318455
0.0566359373046
3.36906696048e-05
2.57087399685e-05
4.68253531989e-05
4.63987727536e-05
0.056804253083
0.0571949313166
0.0586177888111
8.1695266631e-05
0.000226326499883
0.000169629504658
0.00048180974295
0.0602752583642
0.0600435941945
0.0614642032062
0.000516500192508
0.000803092137074
0.000882372676476
0.00106988027049
0.063172858144
0.0627934385296
0.0637486283861
0.000698035753308
0.000657822906757
0.000710333637095
0.000595195668089
0.0654642048809
0.0644179989705
0.0651440677929
0.000557792430682
0.000499508404352
0.000508354722997
0.000460155991604
0.0681058464355
0.0638289211273
0.0671288746367
0.00072164410207
0.000905706009869
0.000599089004916
0.000803180190523
0.0472241744102
0.0447923683573
0.0458882670358
0.00106519429242
0.00110491579813
0.000998997952908
0.000938104384216
0.052707096142
0.0489799776138
0.0519010829195
0.000309190091293
0.000169858923157
0.00019414158764
0.000108401762737
0.0569778321816
0.0550250249699
0.0561590425463
0.000130901841812
9.07034795795e-05
8.78128705684e-05
7.22350057669e-05
0.0570748109361
0.056778522379
0.0569091890525
0.00010294587561
8.60320677817e-05
0.000103555045459
0.000102149942676
0.0578127518113
0.0577997074509
0.0586825167513
8.42595949034e-05
0.000155397862623
0.000120106979141
0.000219171878845
0.0603038802026
0.0597403140596
0.0611901071188
0.000305390274488
0.000504827427671
0.0003797317395
0.000583550033765
0.0621647069617
0.0616895102413
0.0629983872713
0.00106884643209
0.00144080452088
0.00134829570889
0.00153732520757
0.0645129632341
0.0645224745607
0.0650215008768
0.000697888830101
0.000568670241966
0.000669713548584
0.000543017453075
0.0653031636135
0.0652536333388
0.0657463327795
0.000518444848591
0.000494909992655
0.000539091520792
0.000543344879537
0.0666708408413
0.0644721089797
0.0668100127274
0.000590232925548
0.000755608275322
0.000662324087439
0.000787370797545
0.051399133662
0.0507459061501
0.000159239428389
8.95297883391e-05
8.07675638509e-05
0.0558142680578
0.0543687619787
0.0553892544363
8.08476192228e-05
7.81381529237e-05
7.20022268369e-05
7.40049422974e-05
0.056940125294
0.0560692043396
0.0564411773598
0.000111920506866
0.000110977850269
0.000107417124231
0.000113462157571
0.0585602370129
0.0571712889064
0.0580830353758
0.000132454457311
0.000194963443765
0.000156749242977
0.00024353028273
0.0608930413445
0.0588743307794
0.0601959640811
0.000340001735774
0.000526877730305
0.000388253217044
0.000534271961914
0.0629583281668
0.0611604979707
0.0628762883557
0.00134266751179
0.00134258033882
0.00108684448586
0.000940398282422
0.0650768527428
0.0642801507479
0.0647705085586
0.000603937167374
0.00048873140754
0.000541844482559
0.000443831874943
0.0662962432642
0.0655789227384
0.0667554067981
0.000508912120823
0.000541530908158
0.000469958406337
0.000532455641501
0.0669551144835
0.0661417707514
0.0668090260139
0.000751094670725
0.000881136589437
0.000784490732261
0.00107084776904
0.0558200968845
0.0545648582769
0.000110101860816
0.000131364796152
0.000118726125191
0.000150958380758
0.05674394271
0.0552264181443
0.055464143288
0.000280841696642
0.000546999792533
0.000383153378913
0.000886376996729
0.0591267009295
0.0560360239345
0.0583545893589
0.00113348510359
0.00107056779046
0.00162942866901
0.00102109914754
0.0626771513396
0.0608929898687
0.0624171192888
0.000498701072656
0.000424642859388
0.000411135233894
0.000375521286961
0.0644802130135
0.0633188720772
0.064072593878
0.000413456244741
0.000412974131327
0.00040536930138
0.000399778000649
0.0667770421452
0.0649941962718
0.066421923803
0.000424613585673
0.0004897310115
0.000389001880807
0.000451559449938
0.0665417555358
0.0660580391857
0.0664644717486
0.000766023371129
0.00124193815969
0.000751683819122
0.00156989779351
0.0613084303144
0.000387694327591
0.0632792737616
0.000405009191956
0.000417449823182
0.000330580436513
0.000313993030775
0.0656215822011
0.000368003135001
0.000403868151516
0.000281036344476
0.000305435683385
0.0658430358685
0.000765143347289
0.00201072735078
0.000709640570145
0.00220412331147
0.998330254772
0.998389934536
0.838857295125
0.841247877534
0.998376257093
0.836844341048
0.998387478638
0.99825110138
0.998320330725
0.840147644661
0.837785517125
0.998303017653
0.998279663197
0.835655670016
0.998464324192
0.998407326185
0.851480665476
0.846108842872
0.998421729703
0.850409536818
0.998452943128
0.998486372919
0.998486916535
0.855122402184
0.859646790466
0.998516035748
0.854421697631
0.998463579891
0.998356923347
0.998349152856
0.845747016509
0.850405152194
0.998340203531
0.998370203538
0.850166577538
0.998369294482
0.998377547526
0.858882949977
0.854792540934
0.998397956447
0.998362298454
0.853878820642
0.998604288918
0.998537015317
0.865470109835
0.86333585636
0.998553736356
0.86531895637
0.998590804769
0.998655209715
0.998692815718
0.867601782407
0.869462326688
0.998714616456
0.867138815275
0.998627038157
0.998531515487
0.998429761149
0.863192009626
0.865305226714
0.998453256452
0.998490282267
0.865392977644
0.99861338562
0.998681233995
0.869368747919
0.867489310348
0.998713198825
0.998565640969
0.867099079772
0.998936273586
0.998816807913
0.872778892665
0.871259343453
0.99881069561
0.872393704102
0.998937347803
0.999043620431
0.999043774582
0.873738539855
0.874949843129
0.999085236225
0.873367980204
0.998993205352
0.998983548804
0.998854605492
0.871176507472
0.871848536655
0.998848608083
0.999003223038
0.872345322759
0.999053359167
0.99906968875
0.874092883712
0.872569569995
0.999085111559
0.99905443646
0.872977366807
0.999118035607
0.99909302901
0.876941041802
0.876127748152
0.999122670973
0.876124451064
0.999108601654
0.999075098438
0.998935355271
0.876775955872
0.87521350217
0.998947861478
0.87594671697
0.999073923956
0.999114729051
0.999079177949
0.875351653633
0.874081374172
0.999117726188
0.999086841647
0.875437695767
0.999081411284
0.998981226751
0.87438792123
0.873793355565
0.998982504952
0.999065789481
0.875195066425
0.998557086031
0.998744947638
0.87417957424
0.874365567302
0.998766267363
0.87254240897
0.998571377513
0.998348349575
0.998106955395
0.87058330419
0.862578415161
0.998071037582
0.868378889271
0.998388807041
0.998582396458
0.998797988447
0.872780800248
0.868435531229
0.99882294763
0.998535564549
0.87022936066
0.998334617714
0.997871835576
0.859450505772
0.863257838832
0.99800993643
0.998244796397
0.865492880217
0.997634311233
0.9978391402
0.852478060812
0.856027785512
0.99777491795
0.849859581162
0.997710275594
0.997651490306
0.997809932136
0.848988799516
0.843972918702
0.997723083044
0.846280261096
0.997728442594
0.997575214009
0.997585453714
0.853077990013
0.843884498365
0.99769409942
0.99746192918
0.846963722825
0.997592903494
0.997648184446
0.842174999071
0.841474145631
0.997693809909
0.997506078136
0.843753744514
0.997923195767
0.997894917771
0.846271810885
0.843463521183
0.997813148951
0.84309155308
0.997989713927
0.998052114029
0.998368003089
0.844017158801
0.837777414144
0.998271098128
0.840653684174
0.99812651525
0.997940005732
0.997769595316
0.841932429561
0.839971313927
0.997810032332
0.997880870979
0.841537274813
0.997980732707
0.997923593986
0.835150586422
0.837274815361
0.998060997637
0.997882690365
0.838478601465
0.997792964266
0.998319242909
0.83716731891
0.838914706784
0.998230936803
0.833737192586
0.9978518954
0.995939184387
0.995692542356
0.814319804404
0.820470067461
0.807495595958
0.996119872814
0.995475895311
0.997309387305
0.997819759484
0.83786064902
0.83339063969
0.997931582284
0.99728873939
0.833411787085
0.995290917213
0.995895502627
0.826803714385
0.807728847087
0.995538303249
0.804321872218
0.99569277027
0.998966959886
0.999368890836
0.870015485556
0.883832959268
0.999010545677
0.869334945859
0.999249019223
0.99866029211
0.998401499214
0.857818295969
0.850535178867
0.998652885586
0.998434078698
0.859320820698
0.998875538689
0.999180297906
0.88287728996
0.869288099425
0.998882838424
0.869518194334
0.999165784952
0.998574572999
0.998375676037
0.853700263762
0.861729295651
0.998346056538
0.998584286236
0.861234102163
0.998075690615
0.998135411527
0.8394522297
0.846161249824
0.998061661301
0.998161037471
0.8434979029
0.998001470254
0.99795553774
0.840541972493
0.847474258262
0.997960387231
0.997927501567
0.844461643075
0.997994329782
0.998140524759
0.849743011247
0.850949381074
0.998067779514
0.998095241153
0.847556623095
0.99788139039
0.997938142866
0.85079316836
0.851496187572
0.997814068773
0.998004430074
0.848274523147
0.99788234456
0.997958935639
0.851503752758
0.850736438487
0.99795451241
0.997899687583
0.853911589745
0.997869336607
0.997935790171
0.854830272049
0.859315854242
0.997928420098
0.997871104247
0.856387732513
0.997815407181
0.997930985638
0.853261440993
0.858582128502
0.99780748933
0.997948764936
0.855715768647
0.997821405295
0.997988264292
0.860376116621
0.86028062589
0.997849439856
0.997965541478
0.857795726377
0.997990954959
0.997985702197
0.864204229147
0.862226059758
0.998068064241
0.997900283786
0.864619470988
0.998107671702
0.998316695946
0.866354880447
0.86848186971
0.998178768942
0.998225126298
0.866560046119
0.997993845801
0.998022114893
0.862749854951
0.865543865363
0.997907118759
0.998089614401
0.864556794774
0.998095727605
0.998267466869
0.867669253387
0.867024012839
0.998186910477
0.998181779954
0.86597659728
0.998497593459
0.998500526705
0.871469673079
0.870116120056
0.998673480376
0.998359133966
0.871396525194
0.998587975307
0.998723779265
0.871889162784
0.872224496668
0.998724623719
0.998630639104
0.871902324277
0.998383986343
0.998340126158
0.869469002098
0.870997918713
0.998282893236
0.998431384401
0.870983932392
0.998470427501
0.99856174176
0.871782735586
0.871493761331
0.998538568128
0.998514772534
0.871556332738
0.99864290225
0.998729668359
0.873514414444
0.872832075836
0.998739095073
0.998655985709
0.8728033562
0.99859878153
0.998631182666
0.873327046468
0.870847138839
0.998729375486
0.998472505583
0.872408540068
0.998565913588
0.998538809956
0.871149274496
0.86712646799
0.998577279467
0.998486018557
0.870124679931
0.998528183179
0.998220942846
0.865732546484
0.86430318846
0.998393497578
0.998394752648
0.868316885317
0.997930910718
0.998444002868
0.865528575587
0.866879569751
0.998153183592
0.998234891977
0.861582793991
0.997663147214
0.997574043463
0.859714637551
0.848484232616
0.997869921032
0.997393174519
0.855006933343
0.997929423353
0.998020547163
0.861746564908
0.850795738475
0.998186539658
0.99776036327
0.856426448622
0.997705656371
0.997416311013
0.845002512402
0.845707858229