/*--------------------------------*- C++ -*----------------------------------*\
| =========                 |                                                 |
| \\      /  F ield         | OpenFOAM: The Open Source CFD Toolbox           |
|  \\    /   O peration     | Version:  v1906                                 |
|   \\  /    A nd           | Web:      www.OpenFOAM.com                      |
|    \\/     M anipulation  |                                                 |
\*---------------------------------------------------------------------------*/
FoamFile
{
    version     2.0;
    format      ascii;
    class       surfaceScalarField;
    location    "9.65";
    object      phi;
}
// * * * * * * * * * * * * * * * * * * * * * * * * * * * * * * * * * * * * * //

dimensions      [0 3 -1 0 0 0 0];
oriented        oriented;


internalField   nonuniform List<scalar> 
92311
(
0.203974003333
1.23421542341e-05
-0.00119647922268
-0.203831214608
0.00104134867382
-3.91408102393e-05
0.204053819475
-0.000844075306285
0.000803400991995
0.20393844717
0.000100552657258
-0.00123265560176
-0.203854388111
0.00106037718669
-9.44533216059e-05
0.204065187188
-0.000788527790389
0.00071708175628
0.203808088094
2.86704786369e-05
-1.6942978456e-06
-0.00108016602586
-0.203661626341
0.00101068014184
1.128751016e-05
-1.46823611748e-05
-5.60499327627e-05
-9.79154883351e-05
-0.000152370891418
0.204136684174
-0.00058043991396
0.000540758154199
-7.70409202682e-05
0.051022795437
2.95014702163e-05
2.0483642944e-05
2.94073030916e-05
1.77597536636e-05
-0.000336066780719
-0.0510625400948
0.000307345831335
-0.0510474501719
0.051127048896
-3.03859514285e-05
-1.57398426763e-05
-1.74812440296e-05
-2.54743899101e-05
-0.000178508636724
0.0001319305645
-4.03766128587e-05
0.00631532059695
-2.90834924457e-05
-2.71350538514e-05
-2.16040165535e-05
-0.00315347320247
-0.00536527246319
-0.00277017117354
0.00509170223544
-0.00862937436018
0.00852118945171
0.000231630366781
0.00290614089428
3.76983356495e-05
4.89616527187e-05
4.78468177119e-05
5.59620291679e-05
-0.00322019127606
-0.0575286374088
0.00107682753692
0.00328849701682
0.00534672591002
-0.0291726725008
0.106389040746
0.0257782425322
0.00204948324843
1.66582165432e-05
-1.1802535566e-05
-9.88718215507e-06
1.31305014492e-05
-0.000251595034731
0.000217170496999
-4.81194288008e-05
0.0118344291426
1.45363621369e-06
2.35240876234e-06
-0.0118304093071
0.0118264193212
-1.98078245508e-05
1.22251157025e-05
-0.0118320578671
5.62077907349e-05
-4.29884678639e-05
4.40942347927e-05
-2.63158888912e-05
0.0511842660195
-1.99807896418e-05
-2.74820272548e-05
-2.44546425647e-05
-0.00010100166848
-5.08084788419e-05
0.0510965144471
-5.84016827931e-05
-4.7977393841e-05
-4.73252629409e-05
-0.0510257386325
2.54019882633e-05
-6.21885802119e-05
2.23021084792e-05
0.0118554528978
6.84573097098e-05
-5.75886662577e-05
-1.72629439821e-05
0.0127885599934
1.90756545474e-06
-1.63180836464e-05
-0.0127832042892
0.0127797572511
-3.19589960617e-05
-4.59322517511e-05
-0.0127699716189
-1.76238131333e-05
0.20428437956
-0.00203932958396
0.00180022332834
-0.204027649496
0.204112389929
-1.71266911767e-05
-0.000343659053302
0.000302069687917
-2.7366679568e-05
0.204207346828
-0.000204087735226
0.000136452977902
0.000176134549294
0.204331281989
-0.00211535835315
0.00183620928924
-0.204245827277
0.204215291439
-5.29064598231e-05
-0.000451446789523
0.000336976402753
1.2425883647e-05
0.204311749455
-0.000240765720013
0.000104455601246
0.000181002901623
0.000171842029368
0.000154228853174
-0.00203089021357
0.204248280099
0.00173246006843
-0.204456237504
0.000175509670462
-5.3355550889e-05
-4.13912123393e-05
-0.000120471319835
-0.000102534577706
0.204472525271
-0.000240656924694
0.000169504329267
0.0512203542305
7.00111266013e-05
7.23360707997e-05
6.87307857086e-05
7.33907993529e-05
-0.000541578569606
-0.0512906787263
0.000508449697094
0.0511937051608
-1.53005117165e-06
-1.11739413625e-05
-2.36629311146e-06
2.5060538514e-06
1.26265117435e-05
-6.28676194137e-05
0.00698189766129
0.000174860526704
-0.011601285651
2.05084549979e-05
3.51104366675e-05
2.14669682461e-06
1.8807382074e-05
-0.00426137715136
0.0114271900429
0.0171983480982
0.0138314720985
-0.053245662933
0.0123355491098
0.0959323054054
0.00509271837962
0.0143304433838
0.00187590911051
0.00263686522663
0.00266262738075
0.00364557957016
-0.0260787027049
0.0342105528619
-0.00306262740537
0.000427035634292
5.45274824066e-05
4.52463138593e-05
5.25048675885e-05
4.67034193924e-05
0.0512113192821
-0.000445154398954
5.77298556032e-05
4.9332992794e-05
5.27792823542e-05
4.48395438277e-05
0.0511396145598
0.000392114426583
-0.0511551281549
0.000149862966413
-8.82939735048e-05
0.0117682949278
2.64000771624e-05
-5.97659668103e-05
-0.0117964841494
7.02607041941e-05
-4.31511243553e-05
-0.011748902542
3.42325436748e-05
-6.02723208456e-05
0.0117478467911
6.90009173148e-05
0.0127657645516
-0.000102170208147
9.9722082946e-05
-0.0127745720337
-5.01276990617e-05
8.60452764997e-06
2.35195543328e-05
1.94913548374e-05
1.35089728211e-05
0.0511761495503
-3.8850044706e-05
0.051166626043
-3.85457293294e-05
-4.40840260624e-05
-4.75561832187e-05
-2.63617290249e-05
-3.56541500433e-05
-3.71865111763e-05
-3.02216478946e-05
-1.96053217358e-05
-8.3271969638e-06
0.0511809925353
-7.2117206559e-05
-2.58407689446e-05
1.25160545006e-05
5.04312373039e-07
0.0127901321393
1.10389672227e-05
-5.75751136274e-05
-0.0119233374913
3.62670205905e-05
0.0119273275472
6.26439990725e-06
-4.10833963393e-05
-2.71461149301e-05
0.0127836318264
-0.012780816218
-3.75173682723e-05
0.0127844228721
4.76185348404e-05
-5.0942723902e-05
0.00305657491733
-4.86218812673e-06
1.9793453708e-05
-5.48860135668e-06
-0.00269958865798
0.00671429034625
-0.000784766830894
0.00171281513204
8.03811216122e-05
8.51278605841e-05
8.67261996106e-05
9.46637794409e-05
-0.00013727008978
0.0108790729291
-0.00427982351792
-0.00689889735253
-0.0191319909526
0.0167340825672
0.0120947995316
0.010946975143
-0.0131503238895
-0.00117729082147
-0.000160771037125
6.10611059712e-05
6.19875004284e-05
6.40228790629e-05
-0.00245354885014
0.00832821566273
-0.00284592549006
0.00890836802382
0.0100695689405
7.38193321714e-05
0.0127467524689
-8.18293443072e-05
-0.0127573239633
-0.0127390791209
2.96289609389e-05
-7.05413657162e-05
0.0127347842241
6.57018628701e-05
1.7322937847e-05
-2.98587682666e-05
0.0118287510573
-1.08302604642e-05
-4.46610306041e-05
0.0118668340592
-0.0118593356802
1.15323444304e-05
-0.0127497078886
6.91716800168e-05
0.0118587240742
3.35875446745e-05
0.0127416420235
-7.75648634775e-05
0.0127352628483
2.02544924689e-05
-5.61914765418e-05
5.20986190236e-05
4.64080977597e-05
-0.0127442200086
0.0127506828757
-5.24268997578e-05
3.7447701933e-05
-1.79813671625e-05
-2.76353536937e-05
1.07969546095e-05
-0.0118592678435
0.0118515374537
7.29313059537e-05
0.0127383027497
4.41855186979e-05
5.16547329972e-05
-6.36408362569e-05
-0.012754108357
-3.96884685076e-05
-1.6273651309e-05
0.0127712404666
8.43847594004e-06
3.34234278419e-05
0.0127659800074
-4.21194492197e-05
7.86948167954e-05
2.91889348355e-05
0.0118775012089
-6.87647908167e-05
2.71901342319e-05
0.0118755887158
7.9327497191e-05
2.74753503859e-05
0.0118866506962
9.20807932644e-05
0.0127834225036
-2.98568476182e-05
-1.46280094385e-06
-0.0127937442295
0.0127930788279
-1.59766338215e-05
7.62957083432e-05
-0.0118870562493
0.0118973019896
-5.02840980396e-05
-0.0118940322041
9.8237350112e-05
0.0119048188106
-3.11302443995e-05
-8.51068810362e-06
1.85701931675e-07
7.79687570406e-05
1.99808191249e-05
-5.96361882902e-05
9.55193471098e-05
-2.33158406682e-05
-6.45805120553e-05
-0.0127522853695
0.0127631617454
-3.66356795084e-05
0.000123576757068
-0.0119171643102
0.0119262575474
-0.0119271644818
0.0119343684982
0.000136802694242
-7.25850011796e-06
-5.64806090481e-05
-0.012753980448
5.85717866894e-05
-0.000123494226515
-0.0119122409712
0.000136717439881
-0.0127338802899
-1.40981838334e-05
-0.0119069807845
-0.0051672306836
-0.00144132831574
-7.22574185979e-05
-6.44099282936e-05
-7.07429945087e-05
-9.08547469287e-05
0.00334563545316
0.000256287810817
0.00330486626035
-0.0201022014407
0.00135910759342
0.0271318850655
-0.00212843068148
-0.00482006994721
-0.00749302535715
-0.000130069551953
-0.000143920776421
-0.000129297867871
-1.93611553559e-06
0.00145747937628
0.0114105359183
-0.0062132099243
-8.78592017453e-05
-7.37126326779e-05
-8.67104435792e-05
-0.00138584709448
0.00165596242602
0.00232507576154
-0.013505441514
0.00199437672368
0.0188934151156
-0.0127756540549
0.00261310275346
0.00129786421226
-0.0034182428626
5.09947630311e-05
7.60684752208e-05
6.49659867871e-05
3.40399583041e-05
0.00873888440218
-0.00262116833143
-0.0172042729326
0.00387342549977
-0.0137644822919
0.000807230280585
0.00108216783378
-0.00362375773712
4.6617913066e-05
4.37304853349e-05
8.78620936462e-06
1.41688925485e-05
-0.00558740225006
0.00459629634708
-0.000314016067124
-0.0145170230632
0.00137836840898
-0.000140833400235
-1.25473859747e-05
1.12944704092e-05
1.47657376668e-05
-0.0122370236354
-0.00285001261449
-0.0121425225864
0.00156672495967
-0.000111479891882
-0.0127943505722
7.64708745207e-05
0.012784754253
0.00011461301164
0.0128062561854
0.000120649552097
-0.000117939866923
-0.0128249628922
-7.67079799475e-05
2.87741532163e-05
0.0117521469147
-6.61576351419e-05
-9.04171456554e-05
0.0117713583526
-0.0117974777239
-1.03670483335e-06
0.0127955247727
-0.000108723264248
-0.0128140569069
0.000123328863417
0.0117524898008
-5.26934713723e-06
-0.00010458934367
0.0127774394754
5.76969691601e-05
0.000108805978893
-0.0127883927488
9.7556853505e-05
-9.22289258904e-05
0.0127851794611
-5.54171805897e-05
3.05553155151e-05
-5.96893680447e-05
-4.55296394664e-05
-0.0117514078435
8.43391467308e-06
0.0117490567541
-0.000100286175059
0.000102861998423
0.0127733368056
2.67157946478e-06
0.0117981669009
1.80676775916e-05
-2.77104951942e-05
-0.0117917482836
-5.51157165687e-05
8.28271511022e-06
0.0117946900058
-1.4055766809e-05
-9.66241527366e-05
0.0127610097281
9.56497805924e-05
0.0127724542512
6.78464046408e-05
-0.0127808260654
-5.57164012453e-05
-0.0117707484944
0.0117724530175
0.0127678435766
-0.0117729736119
1.90771110213e-05
0.012791179192
-7.10428637702e-06
7.18265440161e-05
0.0119028885388
-3.78716286704e-05
0.0119101059082
0.000102178935201
1.4858811398e-05
2.85175427112e-05
0.0127793691844
-3.01726053899e-05
-5.11379878207e-05
5.69544711829e-05
0.0119162653745
-1.69296668413e-05
0.0127766887858
-9.18816130166e-06
0.0119179565289
9.63656682917e-05
1.22315198636e-05
0.0127704024711
3.6380658737e-05
-3.11146501211e-05
-0.0127655963195
-5.79043807548e-06
0.0127581325375
-2.08825227472e-05
-5.81831488104e-05
4.66183766136e-05
-8.07852767499e-06
-4.04656933385e-05
-0.0119239979236
8.35055334522e-05
0.0119285332043
-1.54485911384e-05
-2.72682788306e-05
0.0127648052671
9.15767577669e-05
-0.0127760377015
-4.47035546634e-05
4.85075027869e-05
-5.27156760074e-05
-5.6364888665e-05
-4.51472460116e-05
0.000120106527
0.0119323081299
0.011943397986
0.000130828770585
-0.000115944965598
0.0119535115467
0.000126133641337
-3.70933912784e-06
0.0127792599446
0.0119430257506
0.0119518313331
-0.000105224972283
0.00011613944438
2.68068399138e-05
-0.000101233559741
0.0119531579189
0.00011699675105
4.26955686973e-05
0.012780555125
-4.24043472334e-05
0.012777242937
-1.10320964786e-06
-1.15953241086e-05
-0.011942333352
0.011945019187
0.0127726923315
-1.18991715004e-05
-4.82216771329e-05
-3.67180925011e-06
-7.78174618549e-05
0.204610787847
-7.73015766091e-06
2.33966547193e-05
-6.0481881836e-05
1.44110488114e-05
2.07882944285e-05
1.62670947559e-05
1.39713063394e-05
-1.16268332754e-05
0.0511708792809
7.34102556144e-06
-0.000120799220697
1.7912752206e-06
1.89525550782e-05
1.62073739053e-05
1.60644956755e-05
-0.000902926085757
-0.0112733885334
0.00682054832419
0.00599491913244
0.00633642871518
0.0430889338482
0.00339248079593
0.00708138963989
0.00119533511935
2.38679640307e-05
4.08839161849e-05
3.65626133056e-05
2.80748672246e-05
-8.36331796056e-05
-0.000363218865216
0.0511210824667
4.48979485497e-05
-5.08195906574e-05
-2.3976695237e-06
0.0118053901202
0.0511791878526
4.47757341085e-06
-2.38455714134e-05
-3.07311118841e-06
-1.32939915158e-05
-7.14016556572e-05
0.0511468314033
1.06624888209e-05
8.63786139979e-06
1.4475736663e-05
-6.07380070029e-06
4.82707797598e-05
-4.74624815218e-05
-4.41890857379e-05
0.0119329324333
2.81373204798e-05
1.77912098567e-05
-3.09339177434e-05
2.37539667103e-05
-9.53705403751e-05
0.0119449042274
0.000110742222138
0.0119285866469
-4.77293337725e-06
-1.42131351324e-05
-5.86229295111e-05
-0.0119289917394
7.8113071212e-05
0.0511181202842
2.81128902767e-06
5.05731967096e-06
9.8338039261e-06
4.40233385502e-06
-4.10781948654e-07
4.02683950392e-05
-3.32249639804e-05
-4.00369064648e-06
-6.33245335311e-06
-9.40673687228e-06
-1.07421940626e-06
2.38189297132e-05
4.9274487358e-05
0.0510926122511
-2.66904206602e-05
-8.20079608566e-06
-9.91123997613e-06
-4.1505641246e-05
0.0119258543879
6.22618617166e-05
-2.02871686686e-05
6.44219782182e-06
1.66063507795e-05
-0.0119225478496
0.01191749555
2.19161399901e-06
-5.80474324188e-05
-3.8103582114e-05
-5.08324527552e-05
6.74473702656e-05
0.00451585429403
-0.00419892794807
-0.00646230881754
0.000506788767189
3.65558913076e-06
2.21118508453e-05
5.64015781612e-06
0.000184465966844
0.000574701820932
-0.00630852112159
1.09721800176e-05
1.06896429002e-05
1.16379867334e-05
0.00206197987229
-0.00282838505611
0.000453604640484
0.00192273522159
-0.00769641096684
-0.00757548009757
3.63061767149e-05
0.00105475550667
-0.00185926805381
0.000173163700243
-0.0068720110172
1.25919302108e-05
9.91711375975e-06
2.25869616455e-05
0.00234977784523
0.00111386340196
-0.00295336774861
3.28349035082e-05
1.65657083832e-05
2.9795470342e-05
0.00100784542691
0.00105917586768
-0.00750345156305
-0.00153512819076
-0.012759952881
3.29675606879e-05
7.64189470849e-05
-8.15614395191e-05
0.0127560031359
-8.26763238249e-05
0.0127519661145
-5.07392919428e-05
0.0117788815181
-1.6112087014e-05
-9.90652739e-06
-3.20213478761e-05
0.0117983622034
-8.89341632382e-05
-2.16897663099e-05
0.0117727963759
0.0127468737794
-2.98575126636e-06
-0.0127632226021
3.47126598116e-05
-1.54177349075e-05
0.0127613112627
0.0127575221589
-4.103337262e-07
-2.24438020503e-05
-3.54314414121e-05
1.72978644058e-05
3.25102582091e-05
0.0119374882971
-3.48097077846e-05
0.0119297986397
7.78638296278e-05
-2.21799468903e-05
0.0127574718782
-1.98260101343e-05
6.58268316837e-05
0.0119319971659
-0.0127692696397
1.37613055669e-05
-1.96950862928e-05
0.0127642301495
2.88150469233e-05
0.0127767482784
-2.52748249014e-05
-9.28959435728e-06
0.0119403839642
-8.82564850891e-05
1.15800353393e-05
0.0119370364529
0.000106723809082
0.0119372215534
0.0127726809106
-1.75562708489e-05
0.0127586235238
1.61123207265e-05
-1.27910123163e-05
1.2895956099e-05
6.06929078873e-06
-0.0127662653211
0.0127584024244
-3.81596582061e-06
-1.70070157957e-05
-0.0119364496971
0.0119344824358
-2.8667206714e-05
-7.56273920476e-05
9.41895285694e-07
9.31730283051e-05
0.0127525995205
9.55330015737e-06
-4.70888226496e-05
-1.16594015065e-05
-0.0127474480486
1.05199576854e-06
-2.62877361973e-06
0.0127427992847
9.03939559836e-06
4.40212847647e-06
0.0127494732202
-3.06472282079e-07
-1.02089161874e-05
0.0119273903934
-1.16852759977e-05
-2.14158816039e-05
-6.10614520742e-06
0.011921966523
4.12903094189e-05
9.28123883335e-06
0.011922003908
7.53091313262e-06
0.0127437007419
1.55239052678e-06
0.0127380879472
-7.21576729311e-06
-2.8692118573e-06
1.0855256423e-05
5.66946545185e-06
-0.0127377071931
0.0127349841554
-2.83115023949e-06
1.69979960789e-05
-0.0119199943772
3.87876208919e-05
0.0119135680398
-3.48492272363e-06
-2.8133486397e-06
2.21493312304e-05
1.38855442097e-05
0.0127375117606
2.1112235159e-05
-6.95641942322e-07
-0.000496243076665
-0.0492358213316
0.0492053672184
0.000589148338463
-6.05724284093e-05
-5.32110986842e-05
-5.58486645233e-05
-5.52092290203e-05
0.000162455892957
-0.000603417217777
0.0497905543656
-0.000163085231134
-0.000127235014413
-0.000141121483352
-0.000141205841085
0.000417012981476
-0.0496546317262
0.00062333102514
-0.00109854480254
-0.0501227580084
0.0505905015643
0.00101870787719
-0.000275338142318
-0.000218636423039
-0.000273958812298
-0.000230478549246
0.00061052278821
-0.000902256341271
-0.000225470121473
-0.000201818929416
-0.000227348215865
-0.000202893630939
0.000559097114135
0.0508975484891
0.000776638258812
-0.050473483813
-2.4293573855e-05
-0.00218691938502
-0.0122622892471
0.00979295172827
0.00250764451681
0.00221676550797
-2.09350331584e-05
-2.47175045167e-05
-1.51050289539e-05
0.000186279279356
-0.00198335297771
-0.00903922567996
0.00434832137517
0.00763704062903
0.000289147027685
0.000237067694804
0.000357967091795
-0.0020609124018
6.20849334549e-05
-0.0018321865564
-0.00813770903123
0.00772488129456
0.000101168215932
0.000101519692066
0.000150949911367
0.001121651732
0.000707956071226
0.000307481699925
-0.00636198128831
0.0140787726124
-0.0175481642375
0.00361068961594
0.00489758335422
0.00036173906244
0.000319459358563
0.000335204891945
0.000257766338972
0.000708423872185
0.000268108099328
0.000253747736754
0.000262433429044
-0.0207907745126
-0.00393562498182
0.0040286043895
0.0189474138665
0.0922161251895
-0.0111451558314
0.000337339193964
-0.00284895091668
0.000288326168502
-0.00418585268982
-0.00187440746768
-0.0406798564046
-0.0323832906089
-0.0166349093618
-0.0144093580411
-0.0170740729834
-0.0163541932662
0.0600628547858
0.0321107993029
0.0981073075042
-0.0195312412295
-0.00144181347272
-0.00744598366639
-0.00528209079125
-0.0104168213293
-0.0406858588875
-0.0314623770622
-0.00853511174363
-0.0114965229312
-0.00762162511367
-0.00946572910599
0.172495179287
0.0834942591186
-0.00675031666686
-0.00682440490068
-0.00532101566661
-0.0351371449154
-0.0109703503871
-0.00659350327464
-0.00259928042715
-0.0050688386801
-0.00211519270367
-0.00418702708222
0.124234820166
-0.00901364666534
0.000173991754778
-2.20109072182e-05
-3.06185413245e-05
-2.51078675585e-05
-2.72560735153e-05
0.0489939628756
0.000126538887982
-1.07527240135e-05
-0.0491788355978
0.0490013321097
0.000331707660619
-2.09764868018e-05
-2.19131104364e-05
-2.47119732556e-05
-2.18345470935e-05
0.000114983607637
-0.0491846469752
3.01411027196e-05
3.90906009166e-05
-0.0121857867988
2.76905517743e-05
0.012112121902
-2.30636516403e-05
0.0121124722309
5.72734421494e-05
3.1715080913e-05
2.85204212319e-05
-4.65853546252e-05
-0.0121833689552
-4.51974403206e-05
-3.90692492266e-05
-4.10958634659e-05
-3.94963730834e-05
-0.000292278675681
0.0122581570377
0.0121842556357
0.0121788120174
0.0122266561235
0.000114426213986
5.39640000136e-05
2.70094045908e-05
4.36701629469e-05
-4.48333402413e-05
0.0120328255141
0.00043462626891
-2.94200660279e-05
-2.874565478e-05
-2.87215961874e-05
-3.00390174454e-05
9.83117012636e-05
-0.0493201163942
0.0494552209179
-4.11627124702e-05
-5.74645450039e-05
-4.5791900686e-05
-5.14691873644e-05
0.000129812192309
-0.0494358482771
0.000481239025195
0.012112354257
3.71956283147e-05
3.29596841216e-05
-0.0121836366553
5.84316026129e-05
0.0121057364862
2.17920538482e-05
6.70773532271e-05
-5.10524066608e-05
-0.012179756352
3.46066307083e-05
0.000854907372455
-9.45177362207e-05
-0.000103349256653
-8.83268680956e-05
-0.000118428106289
0.0492237224786
-0.000185934716331
-0.000159626770325
-0.000187395463765
-0.000162301600028
4.66430615953e-05
5.61082348878e-05
6.27209780218e-05
6.12582804112e-05
0.0494807940319
-8.91540373423e-05
-9.12138070773e-05
-7.98283711084e-05
-0.000104788908339
0.000325259610807
0.0497581745044
0.000841720503357
-0.000136000476651
-0.000188426823195
-0.000164490755748
-0.000145786853912
0.000370739490597
4.94426128164e-05
0.0120361100474
5.64047622008e-05
0.0117960163509
-4.50865048781e-05
0.0001313942236
-0.0118843813006
7.12690770944e-05
-6.87077261469e-05
2.6217294028e-05
-7.89104296867e-06
9.60985165315e-05
-4.41822649445e-05
0.0120361014517
0.0118494328313
7.02475862253e-05
-0.000208648905636
0.000264879924296
-6.71924772532e-05
-0.0119085016167
0.0502150036193
-0.000267921749914
-0.000213209680042
-0.00019467506543
-0.00028487832485
-0.00114620880271
0.000552039257451
0.00140358561538
-0.000235983457479
-0.000281954662131
-0.000249967243525
-0.000284644197979
0.0511106268041
0.00045788308217
-0.00170399926953
0.000188446639069
0.0117812575453
9.00864096289e-05
-7.75731766118e-05
-0.000533972653759
0.000417545706394
-0.0118486792948
0.000252281663147
0.0119494251107
-0.000236822418322
0.000124682890226
-0.000337739586653
0.000296521365887
-0.000107380106193
0.0118729972115
0.000276527158096
-0.000404636755654
0.000369180256009
-0.000286427893139
-0.011949259035
0.0119945903596
0.000806309187428
-0.00019451810766
-0.000220568507249
-0.000181883956332
-0.00024001388519
0.000540283598612
0.0503455111159
-0.000195383382463
-0.000235039390459
-0.000232441222876
-0.000199196651715
0.000584925103643
-0.0500147369902
0.000752754879909
0.000127414497355
0.0120339746625
2.49443750652e-05
-0.012099749882
0.0118903933229
-0.00024944757735
0.000278897995693
-0.0119282208296
7.82416216498e-05
0.0119636152773
-0.000256365526752
0.000275105860497
-8.86286178494e-05
-0.0119787778076
8.49647490517e-05
0.00117019614361
-0.00025244298256
-0.000276137098572
-0.000251132633182
-0.00026694159499
0.0511371694572
0.00073371671746
0.0507888727624
-0.000248493552287
-0.000216242656157
-0.000214734360855
-0.000243495771319
0.000596253830723
-0.000218109436155
-0.000218146785616
-0.000212943405432
-0.000229892121138
0.0511781473381
0.000990871219482
0.000669259676116
0.000289886597475
0.011910594322
0.000122578465659
-0.000357738449639
0.000335173071002
-0.0119805602299
0.000262139931957
0.0120177181439
0.000106055477382
-0.000265718843104
0.00025688234039
-0.000117422565229
0.011983990235
0.000174186209454
-0.000240100610924
0.000235379865836
-0.000205476020773
-0.0120305838566
0.0120665995504
0.000248145521578
0.0119989801314
9.86325507511e-05
-0.0119820784693
0.000221451976991
-0.0120442661474
0.0120836240626
-0.000229082710764
0.00014231538109
0.00207610650774
-3.39714084659e-05
-3.35291726337e-05
-3.9300507246e-05
0.012805238203
-0.00203007501966
-0.0117269653636
-0.000986028896848
0.0127055138157
0.00243709835621
-3.0731849019e-05
-3.78728367583e-05
-3.70938930079e-05
-0.011992130949
-0.000935866092195
0.00125537883609
-2.63048062996e-05
-2.34480541222e-05
-2.52402340738e-05
-0.00206529794591
0.0114308067219
0.00642257962412
-0.00307967252109
-0.00121101329572
0.00239346916618
-0.0042345665885
-2.71106803656e-05
0.00828644022885
-0.0035766139271
-0.00109548755748
0.00744719568295
-0.00458310439207
-0.00451125888408
0.00985458715427
-0.0020840378184
-0.0045691102339
-6.09000070094e-05
0.00209978128069
-0.00688973621433
-0.00351027356839
0.00556160759019
-0.00908975843222
-0.00616081710276
-0.00479229757032
0.00462328570975
-0.00137718457584
-0.00839790687679
0.00230167064613
-0.00178448797506
-0.00671784146786
0.00279548869956
-3.73598183534e-05
-3.30766526669e-05
-3.85946404575e-05
-0.000740139675307
-0.0117362167169
0.00872950438528
-3.19812017954e-05
-2.68480053839e-05
-3.2644075684e-05
-0.0092705414048
0.000982451733771
0.00246767108538
0.00239587858888
0.00757451566096
2.0779823469e-05
7.80555656707e-05
2.83962164465e-05
-0.0023630727888
0.00360225368744
0.00576859511171
-1.06062502836e-05
3.42834313973e-05
1.71431419727e-06
0.00851461682826
-0.00571376450861
0.00263520882381
0.000144996885871
0.000125124040606
8.27699954088e-05
0.0055422523625
-0.00500590261755
-0.00422152412961
-0.00273899459897
0.00630428036608
0.00527268351063
-0.00543951547619
-0.00438356924558
0.00373647074268
-0.00313453159181
0.00835633350594
0.00560749056122
0.000458697177663
0.000516262443699
0.000484409826626
-0.0207065818112
-0.00430375423838
-0.0147024376189
0.00555750027528
0.00029046459167
0.000409495026714
0.000381649172449
0.00542496494713
0.00792984632487
0.000453344748836
0.000428432080972
0.000432402001949
-0.0214142554211
0.00527099594429
-0.00124328465665
0.00279180213292
-0.00103130912992
0.00177901411734
-0.00134934505103
0.00146426224151
-0.00095238529706
0.00194557257221
0.00567401682927
0.00019138491707
0.00028721289735
0.000230550289519
0.00445878308225
-0.0164812722589
0.000261853716092
0.00022782220553
0.000221089194971
0.0145245594685
-0.00152210649019
7.32954847533e-05
-0.000886127987174
-0.00364800966815
-0.0026073387092
-0.00158228466482
-0.00192560363866
0.00198060837115
-0.00353058132396
0.00345549630047
0.00520546021145
0.000373138009131
0.000305923581847
0.000326629177409
-0.0196395847922
-0.0176952126385
0.00441941031835
0.000280934416698
0.000268546528243
0.000299050035836
0.00450284709332
0.00027292346139
0.000259190491861
0.000291369850393
-0.0193884225143
-0.000417045896139
0.000717050117139
-0.00130623618445
-0.000459745902865
0.00278858375159
0.00135969310939
-0.00228268672061
0.00360627459877
-0.00239937705417
0.0123096481883
-2.00424077554e-05
-2.3285373931e-05
4.03716686529e-05
-0.0123286961915
2.83364103538e-05
-0.0123055291815
0.0122918381591
-6.13214537604e-06
3.10027623003e-05
2.83485579958e-05
-2.40839588578e-05
-0.0122551627199
3.06335611751e-05
-0.0121848318585
3.63459591053e-05
0.0121120195794
4.80593981673e-05
0.0122955039139
3.97153756306e-05
-0.0122530261301
-2.15510390898e-06
-0.0123255265154
0.0123173919872
5.52533505456e-05
-1.90565773605e-05
-0.0123341817974
-6.83137288574e-05
-0.0123293877496
0.0123198315178
8.44403731022e-05
3.19462834963e-05
-0.0121846758797
0.0121116905105
2.05465064104e-05
-4.87231155298e-05
5.7492510315e-05
-0.0122508450024
0.0123044287906
6.73032587745e-05
-0.0123426758971
-0.0122501107627
-0.0122884034791
9.6287117074e-05
-5.33575428598e-05
-7.0102773991e-05
0.0122703692112
-7.92892296904e-05
0.0123082675119
9.5508965507e-05
4.47554520015e-05
0.0120334748005
-3.74068320248e-05
5.00101542685e-05
-4.80231511426e-05
5.73770752628e-05
0.0119500153647
-5.95332901399e-05
0.000119610487482
0.0122954595064
-3.8406430207e-05
0.0119454063805
-7.44039128196e-05
0.0123568880813
-2.97901908092e-05
8.12195762817e-05
-0.0123633348255
-0.01234435516
9.36693170023e-05
0.0123393453493
2.72480092165e-05
5.81967882564e-05
-0.0122489364201
3.69457059577e-05
-0.012181399952
5.77042232967e-05
0.0121122276336
-0.012352928933
0.000102509704908
0.0123549649284
5.52734816941e-05
-0.0122468690243
0.0123716230577
8.08329032535e-05
-3.52139727442e-05
-0.0123771784718
-0.000101666097223
-0.0123825414196
0.0123867386357
0.000106549020473
4.58821214531e-05
-0.0121827797148
0.0121107758292
5.17535526386e-05
-5.09986006539e-05
-0.0122447687893
3.73384316717e-05
0.0123722564194
-0.0123882153662
8.67279022355e-05
-0.0122463789495
-0.000129261967535
-0.0123460179672
-6.91774664483e-05
0.0123451407252
0.000138128622961
0.0123288273835
0.000102234077725
5.81230860575e-05
6.01041586851e-05
0.0119542440956
5.48639234875e-05
0.0120359612863
5.23303435374e-05
0.0123212820772
0.000110692409414
0.0119548559935
5.41240591502e-05
-0.000140835871676
0.0123402255594
-0.000104119066602
0.000155246477397
-0.0123099840961
0.000177233272594
0.012324551354
-0.000163920354186
8.60706893729e-05
6.40883476521e-05
-6.00695672706e-05
0.00016688695793
-0.0118900290227
6.57294004988e-05
0.011806058043
-0.000132061290636
0.000192978580181
0.0123725369897
5.31987651464e-05
-0.01236438516
0.000135091911503
-9.44375496103e-05
0.0123727699529
-0.000108192962735
0.012383292039
0.000116429287963
6.99270976257e-05
0.012038653083
0.000132539891412
-4.70952072211e-05
0.0119539069653
3.11403564066e-05
0.0124008337699
0.000144595863342
0.0119535195289
0.0123735877107
0.000157336917649
-0.000139468372812
-0.000196640002491
-0.0124166526506
0.0124744210199
0.000215427620804
0.000217093250055
-0.0118982885741
0.0118247578779
0.000180836140558
-5.06814931154e-05
4.06256949202e-05
0.0124226004927
0.000176656169212
-0.000264382281756
-0.0124230075172
-0.000346713181433
0.012514689575
0.000296581049061
0.000223409411642
0.0123590258798
0.000212162048736
0.0001358664422
-0.000194144670128
0.000308158680341
0.000123630971051
0.0117526600667
-0.000114352337486
0.000226847790472
0.0118104753213
9.57765822308e-05
0.0124498527511
0.000199361363794
-0.000246188483931
0.000239437661564
0.000149625551441
0.0118006419718
0.000146389831407
-0.000316514877613
-0.000363411439408
0.0126624528863
0.000347172715982
0.00018558118082
-0.0126118051346
0.000376475510324
0.012773272557
-0.000362018002408
0.000242016367635
0.000346246803374
0.000176548308404
-0.000159346823207
-0.0118851982775
0.000406470901023
0.000282802669047
0.0119660514455
-0.000298671359213
0.000167503375702
0.000213387179981
0.000398484893966
0.0127992301363
0.000249046790996
-0.0124837815786
0.00029981052672
-0.0003617687829
0.0125749994531
-0.000247862732596
0.0125430193307
0.000262761409699
0.000263373959625
0.0118405699277
0.000377681543743
-0.00015745119341
0.0118876504184
0.00017453954364
0.0126284189847
0.000307989856561
0.0118503144304
0.000343105187612
-0.000360664120818
0.0127047497055
-0.0127382331414
-0.000388267683688
0.000379904948741
0.0128342211366
-0.0119240530393
0.000387594504543
0.0119876226684
0.000357652546787
-0.000213587575836
0.000223292703407
0.000341489521543
0.0128189091413
-0.000146345379417
-0.0124279467612
-0.000217061375129
0.012467041906
0.000161192114698
0.0124037994711
0.000116509355218
-0.0124039800045
0.000174145090927
3.60876974409e-05
0.0119558749515
0.000168215362247
0.012033496938
-0.0120967066847
2.09134149101e-05
0.0124351239147
-0.0124179923165
0.000133849228009
0.0119640884959
3.94751597773e-05
-0.000180386149948
0.0125032245622
-0.000243502619346
0.000193280596426
-0.0124613001986
0.000215266328265
0.0125199482381
0.00021123281083
4.84300151269e-05
0.000302664387517
-0.0119422507202
8.96115008934e-05
0.011915254647
0.000221343093571
0.0125602733506
5.73805623918e-05
0.0125397935215
0.000191245783719
-0.000234957145615
-0.0124978640594
-0.000216855096438
-0.0125675512966
0.0126196146108
0.000205014417347
0.000281022986898
-0.0119641351557
0.0119461241191
0.000238779826304
-6.12746418027e-05
-0.0119947233804