/*--------------------------------*- C++ -*----------------------------------*\
| =========                 |                                                 |
| \\      /  F ield         | OpenFOAM: The Open Source CFD Toolbox           |
|  \\    /   O peration     | Version:  v1906                                 |
|   \\  /    A nd           | Web:      www.OpenFOAM.com                      |
|    \\/     M anipulation  |                                                 |
\*---------------------------------------------------------------------------*/
FoamFile
{
    version     2.0;
    format      ascii;
    class       volScalarField;
    location    "2.7";
    object      p_rgh;
}
// * * * * * * * * * * * * * * * * * * * * * * * * * * * * * * * * * * * * * //

dimensions      [1 -1 -2 0 0 0 0];


internalField   nonuniform List<scalar> 
28582
(
19559.7979693
19561.6873138
19560.0360601
19562.2872295
19560.4516599
19563.6338168
19559.5590925
19563.888044
459.427767517
521.513606794
0.0208009987251
19561.8026186
18593.4803674
18620.2012341
19565.9715866
19566.1446149
18626.9703133
19567.6536894
19567.4168409
19557.1190689
19563.2314557
19563.9015052
19556.819543
19564.119816
19564.8879013
19556.2171568
19566.2960461
19553.951062
19567.8425736
544.72059279
0.00667220236683
0.0219696667729
19555.8376008
19556.6691795
18479.9258518
18493.311551
19554.9410408
19569.5496012
19567.954385
19569.6735147
19568.7756863
18656.0761333
19568.5386921
19570.8420827
475.641773493
528.962859281
0.527004528124
0.142848228441
497.97145826
0.296533583311
19558.3857647
19559.7365927
18598.2416373
18600.9343341
19558.1964953
18622.2952402
19559.6821263
19561.1881441
19562.6452536
18606.104511
18630.4029839
19562.4464577
18629.4667329
19561.1373801
19565.0799727
19563.9612364
18630.6089416
18633.8117688
19563.7410645
18637.9879065
19565.2644536
19567.7922283
18640.8238684
18643.0905602
19566.3873767
18635.2331894
18640.6807343
19566.5328952
19567.5587617
18632.653233
18619.0374261
19566.187447
18613.3697925
19566.3392057
18630.060156
468.218307954
1.3216382218
473.047926085
476.111212256
1.23269385873
1.28466195929
550.803336194
1.19544265207
0.165302520862
568.328344888
2.2849483229
562.095172847
0.465298911241
19552.1603981
19551.6588194
18455.2032353
18414.8587685
19552.0174621
19550.6349614
18449.7830868
19553.4964563
19554.5628148
18455.4238116
18502.3951003
19552.9298428
19554.7433312
18499.1189284
18500.2339425
18536.124802
19556.6015153
19554.1893854
18522.9286652
19555.4105187
18514.0411594
19568.9590062
18646.6116928
18645.2715548
19569.7676605
18650.6804908
19569.961838
18649.5731167
19570.6827107
19571.4683412
18652.0492834
18663.1546467
19570.7608147
19571.6351181
18658.7339424
19569.7623108
19568.6989377
18638.0699169
18624.2923092
18633.5102477
19569.5974596
18645.3721186
18643.9394367
18637.3216016
19571.5130196
19570.604027
18660.5210417
19571.518155
18653.9727372
19567.3861497
19570.8496
578.077955745
0.0682993048849
19558.8574972
18573.0147845
19570.9102894
19571.4491247
18662.2137026
18625.1919843
18590.6693188
19570.8145933
19568.3730601
18551.6389487
18421.7976553
473.008361923
588.03240488
613.396995045
1.61048171467
3.38825428667
4.09216626749
658.357939653
721.028928122
19558.5041066
19558.2503399
18532.7784664
18578.210347
19556.7304089
18561.693673
19559.4926061
19572.9948314
19572.2893327
18662.8085664
18661.8851428
19573.0553685
19572.3990083
18656.5912986
19572.5416393
19571.9019986
18653.8775522
18619.8282851
19572.1022354
18635.3846128
19572.3908371
19572.893104
19573.0917271
18600.3800062
18612.4662976
19573.2465364
18615.6605397
19572.8246813
19572.6053885
19573.0741887
18576.207396
18525.8389804
19573.3106801
18535.3249682
19573.0276646
19570.8293385
19569.208148
18380.4110509
18484.806112
19567.6029771
18466.9897634
19571.9639658
19567.8777217
19561.6590996
19559.6495756
19556.4906359
269.339077963
320.340195728
274.187001107
327.579394049
339.401951637
0.0685589744309
0.0758328383239
0.061077393436
0.0422463549878
0.0503928707893
0.0753591535109
19569.2534252
19568.2626752
19051.6128959
19076.654041
19571.1243054
19105.2934378
19566.2736718
19563.7247132
19062.994012
18988.2036249
19568.1902451
19564.5495583
19564.3246331
19087.543499
19106.8165602
19010.1268568
18979.3338559
19562.066659
19558.1274786
19086.7780941
18858.378598
18956.514723
18726.1968027
19561.2953165
19559.0730028
18978.7384302
18946.8935394
18859.4037917
19556.9991034
19557.8826469
19556.0218906
18932.5825336
18711.4013895
18857.3347437
18681.4253156
18835.4400756
18669.2732251
279.545098932
266.912974476
271.50684254
0.210973405682
0.664108197964
0.189166094311
0.639126244695
1.23691012966
1.51649381818
1.15057726536
1.23383811943
262.962597141
263.676491927
286.192659769
269.290555838
288.637292152
0.197832853544
0.688474605332
0.188482768204
0.694220665707
355.353833204
327.228675763
359.936750326
1.17392088943
1.08295202635
1.23240420841
1.1864686835
294.034893176
299.115854504
0.184732948436
0.68652351699
0.711922870792
361.544494364
331.9460812
357.784390393
1.2815452754
1.49285268256
1.30030477191
1.80308312425
19568.1362264
19569.9600662
18995.7355099
19072.9990242
19569.9751207
19058.9744436
19567.506655
19567.8452863
19568.7765139
19073.66815
19031.2984438
19569.562337
19566.8299691
19062.4629504
19573.1365212
19570.425625
19098.3561442
19123.4652408
19571.2968591
19571.5342993
19158.3430787
19565.2292789
19567.6556726
19022.402213
19033.2394873
19565.9802803
19566.2386495
19028.1242154
19564.0402946
19563.6395758
19010.4432989
18958.3951097
19564.91381
19562.5374121
19006.7619601
19568.2480593
19569.136617
19099.8574776
19042.5055801
19569.8762393
19567.1687942
19084.6559504
19568.7284466
19570.115967
19086.9849548
19048.4388393
19569.9837406
19567.7518579
19096.5813764
19566.5699254
19564.4404431
19018.8659133
19008.7991629
19565.8893639
19564.6264101
19054.9937331
19566.8681294
19564.0545602
19005.1287877
18971.6470779
19565.7082858
19564.2134176
19061.507246
19563.894278
19569.3495967
18953.3174379
18950.6091985
19565.8321765
19565.809656
18959.4030682
19561.1703686
19557.90825
18815.6007695
18653.5454657
19561.1138647
18884.7996092
19555.3263718
19561.9900936
19563.1009862
18897.626218
18809.429809
19563.6766713
19559.5342065
18909.8326976
19559.571494
19554.6952615
18622.7065442
18659.1310714
19555.8487123
18848.208266
19554.2951233
19561.8263823
19562.9515087
18976.9296146
18925.3089677
19563.1530625
19561.3664457
18946.0998371
19561.7807719
19562.5232815
18941.4370864
18904.7490396
19562.6504547
19560.6434574
18953.3929565
19560.5337232
19559.0075043
18883.6518003
18849.4975802
19559.6857571
19558.98136
18923.2506281
19558.0890386
19561.8583638
18793.7419108
18791.7760717
19558.5866388
19558.9230858
18814.863831
19556.5353475
19554.2638769
18653.4085671
18627.7407461
19554.9330299
18788.4332415
19553.1585609
19557.4206077
19558.4003367
18781.5132087
18760.9850397
19557.9647743
19556.2489083
18797.2802369
19556.2816358
19553.8477215
18648.7613785
18639.2209134
19553.9935207
18788.0547769
19553.4468651
19555.1609001
19557.6478684
18752.0431928
18698.8776925
19555.6317844
19554.8490165
18722.842275
19553.7256716
18637.4437986
19553.5658678
19558.8438764
19561.074064
19562.8614698
19563.6749064
19562.595168
19560.9715199
19559.0295979
19561.6525868
19563.7009304
19564.5085154
19562.7841213
19560.6072445
19544.5329991
19551.8852894
19557.1994916
19561.1212502
19562.8322507
19562.8160754
19562.064597
19559.9801467
19546.9675988
19554.0443757
19559.6104077
19562.1590486
19563.1121479
19562.9821986
19562.2187301
19560.0470986
19552.9135461
19555.9176168
19559.4869193
19561.964086
19563.0904276
19563.1054056
19562.3398487
19560.2170581
19555.310704
19557.5396193
19560.4163259
19562.5050857
19563.4219092
19563.3508012
19562.4371124
19560.5147268
19563.6501762
19563.5267203
19562.5233868
19560.7518165
19540.0933762
19548.5732159
19555.90986
19561.0511072
19563.5524098
19563.5750267
19562.2107937
19559.5726011
19544.7972973
19551.5007678
19560.9523284
19563.2846279
19564.1063896
19563.7941241
19562.3787773
19559.6523194
19552.4782859
19556.115979
19559.6736402
19562.4840706
19563.9091105
19563.9005732
19562.6090163
19559.8091804
19555.0794618
19557.6794281
19560.9694925
19563.3013416
19564.3973159
19564.2281687
19562.7757708
19560.1039719
19564.6464172
19564.3876424
19562.7569408
19560.3452649
19535.3051803
19548.3816828
19558.6684279
19564.0898103
19566.2330157
19565.6488146
19562.8742209
19557.8022769
19541.3641912
19551.5152022
19561.1855883
19564.8201226
19566.3877793
19565.7515578
19562.9512009
19557.8775595
19552.1941894
19556.4340008
19560.9274118
19564.6264162
19566.3660076
19566.0440227
19563.4662459
19558.1416075
19553.59941
19554.6753344
19558.0461629
19562.2433493
19565.4626923
19566.8408177
19566.3820099
19563.6893224
19558.459292
19559.3351785
19562.9273702
19565.8710312
19567.1674238
19566.4001837
19563.1944349
19558.6304757
19566.3681097
19563.0160835
19559.0486864
19538.3397809
19549.561352
19558.6185711
19565.2952068
19568.9483391
19569.9896267
19566.1994462
19558.8416245
19539.7494081
19543.8288149
19552.379731
19560.099881
19565.46165
19568.7162867
19569.9363302
19565.5365959
19558.0822155
19553.9759505
19548.4146341
19549.3220525
19555.2719171
19560.9954139
19565.8079329
19568.8733996
19570.2873832
19566.1933745
19558.0325124
19552.1827353
19552.8184464
19556.9142267
19562.1820239
19566.5794407
19569.4792222
19570.9153643
19567.1370919
19558.5310702
19558.0792345
19562.7896431
19567.0208123
19570.1285799
19571.191326
19565.8594462
19558.142665
19570.8503959
19564.3228135
19558.2664818
510.422178418
523.775832548
562.085220768
592.633839926
620.843338161
666.685513771
790.441866191
929.116378071
376.660026564
432.650046448
483.508052577
516.762599066
553.794584067
595.707850178
622.398541546
667.644227172
797.985423386
946.294631728
379.440797144
408.515520932
448.82072901
489.701426877
530.610442296
574.382991924
608.999633242
656.533101907
786.74470312
931.924771705
393.666941446
438.407763399
482.160949184
522.337335705
558.954625787
586.836257235
633.402830595
767.519973287
908.123655761
486.988020745
522.549443961
558.308660703
581.090761909
631.150383567
773.603457448
886.206763189
657.834829896
780.233225116
848.211402894
0.00336211999358
-0.0432421969925
-0.030159595131
-0.0293225128839
-0.0394779577316
-0.0185192286109
-0.0507704181459
-0.0772347135927
0.173369521065
1.09026246525
-0.00931303312077
-0.0226841925517
-0.0292264535447
-0.0338672136894
-0.0419067419441
-0.0436462920746
-0.0737658724735
-0.101420059645
0.17456967232
1.01411113954
0.0176757151721
-0.0161021796637
-0.0243369136448
-0.0255182348152
-0.00031482070735
-0.00977229647207
-0.0394909618103
-0.0552192403044
0.110188113684
0.734647707861
-0.0276545913381
-0.027095229784
-0.00205960126903
0.013425223742
0.00236093138636
-0.0205754631948
-0.0430701402531
0.0435108785964
0.617773886264
-0.00279003861759
-0.00475852564352
-0.0140601949546
-0.0330702071002
-0.0084930988915
0.156734334913
0.652073874352
0.043635161389
0.143914159394
0.78933526957
19548.1042538
19545.0764974
19549.5392389
19542.6512804
19546.0861737
19543.3834691
19547.5709512
19554.3130138
19553.0980711
19555.8064346
19550.1361066
19552.7509399
19551.2069716
19554.5214122
19550.9664032
19549.0861217
19551.8733765
19546.0597941
19550.0430932
19548.3698998
19551.4609175
19556.0307976
19554.5144513
19556.6556244
19553.2195673
19555.63099
19554.2095479
19556.5392971
19543.6819604
19540.8367679
19544.0755389
19536.330513
19543.1427197
19537.9392438
19542.8404309
19552.0762863
19548.6465499
19553.510896
19548.4770778
19551.6809873
19548.6943856
19552.9508431
19548.7983974
19547.9724862
19551.0478641
19541.4244017
19546.0245113
19547.1408755
19550.1457946
19554.8724207
19553.5686611
19556.7403436
19551.0812629
19554.4858856
19553.2723126
19556.1924157
19543.0102237
19538.4798493
19544.0390471
19537.14371
19543.6738707
19539.1832579
19544.9821059
19552.2036283
19549.1973502
19553.686896
19549.4624434
19553.0225863
19550.0418334
19554.9632373
19546.5939411
19546.6425132
19550.0479438
19543.0354196
19547.6105256
19546.5943474
19550.4214242
19554.8339236
19553.5116423
19556.2585581
19552.0916198
19556.0972637
19554.0122554
19557.460436
19531.5298541
19536.8300279
18169.3791474
18246.6318439
19544.2788087
19541.1352475
19545.8978461
18175.196495
18293.3114839
18248.1199011
18333.306607
19554.3289422
19550.5433704
19555.1640304
18321.5984761
18426.0888837
18357.4379023
18430.3345817
19562.2646158
19559.2100453
19562.5504578
18441.6949396
18476.1703191
18450.1142452
18476.5264193
19567.6270972
19565.2346625
19567.3699287
18502.4319163
18540.5473369
18490.2317087
18533.4220874
19569.6345066
19568.7104448
19569.5575707
18542.2633149
18505.3755911
18535.9715577
18523.3861643
19569.0372813
19569.854164
19568.6988831
18502.0860313
18457.9155862
18520.7380504
18431.0696803
19561.9855827
19565.7520173
19561.5680768
18367.8715336
17796.8376137
18305.7449621
17718.7376429
19556.8363412
19558.4138733
19557.0354506
17667.2753205
17495.8270669
17596.6599122
17465.7028212
19553.8122686
19548.5441721
18732.9544261
18404.4985113
18672.7923805
18496.7678793
19540.2679323
19544.6308841
19543.8915938
18346.0382405
18279.9633221
18461.8628467
18408.014672
19548.1600622
19546.5716864
19550.4030662
18276.7899569
18348.2250296
18397.6419562
18430.1102435
19556.4647021
19554.1072048
19557.3494585
18369.586239
18437.5434582
18443.5354667
18483.2067306
19563.0753107
19560.5490975
19563.2707274
18453.0407619
18482.9451936
18489.2884123
18517.9348924
19567.4418254
19565.5020456
19567.3850915
18494.8770475
18532.4088073
18523.1837594
18533.0018159
19569.5470723
19568.7151966
19569.6403965
18534.5501905
18526.1949112
18535.1734644
18528.6982658
19568.6835412
19570.0669957
19568.8215809
18525.2031671
18428.8021068
18529.5593402
18431.2722385
19561.3333419
19565.7155537
19561.2720443
18296.8217438
17721.2232876
18306.5595251
17732.9792372
19556.7271201
19557.8830414
19556.3751274
17606.2412839
17455.6875624
17616.1277968
17454.4908899
19550.8730119
19554.0217288
19552.0907056
18675.6604941
18519.4991033
18684.486628
18586.3462109
19547.7701277
19550.8636041
19550.5112917
18491.2316601
18446.2226543
18574.617036
18526.6041204
19552.2556576
19551.483787
19553.6133948
18433.9561408
18457.629147
18507.3756745
18515.663091
19558.2444275
19556.2053166
19559.0568043
18465.530407
18501.0876674
18513.8277113
18558.0345762
19563.6347454
19561.6625751
19564.1571448
18504.898563
18531.7235993
18559.3842473
18579.6041622
19567.5948617
19566.285204
19567.948359
18536.3298807
18543.0529155
18582.6160263
18585.8516457
19569.8914109
19569.216793
19570.1757384
18543.316254
18534.9534056
18583.5644915
18568.0569942
19569.1833967
19570.6713265
19569.7154794
18535.9736517
18460.9826959
18565.7108399
18515.6685112
19561.6498667
19566.9033376
19562.2235616
18342.0398587
17750.4438078
18428.5139633
17853.824569
19556.1868069
19558.4770825
19556.3165184
17617.2220073
17459.5320721
17694.895696
17440.9478306
18686.0909724
18594.4637664
19552.082648
19552.7827068
18589.2106715
18538.4759657
18503.2653297
19554.524641
19553.6654722
19555.2364352
18512.9348472
18520.6727633
18494.0104754
18498.4186097
19559.6552612
19557.5517717
19560.1017863
18519.886521
18560.9177622
18514.6948539
18545.088739
19564.5811249
19562.531396
19564.8391812
18563.0190576
18583.8589907
18554.3265021
18580.7474849
19568.2330079
19566.7877281
19568.4410205
18588.4718037
18592.8896067
18588.4355358
18612.8927692
19570.497932
19569.7555322
19570.8058281
18592.3639212
18577.9930491
18619.130027
18615.029428
19570.0107002
19571.1818852
19569.9067117
18577.3460607
18542.6881407
18614.6417557
18535.3244208
19562.4581621
19566.8211616
19562.0981609
18455.2310656
17864.5995768
18414.8212047
17821.2344465
19556.4514024
19558.4108705
19556.8817642
17700.7562716
17443.4745185
17692.2475859
17506.6269571
19560.5061612
19561.1988123
18518.3147911
18547.1927962
18602.6477146
19565.0230468
19563.4056381
19565.6150788
18555.0539731
18580.6600234
18609.533415
18631.0204246
19568.7735357
19567.571801
19569.2612701
18590.1100658
18615.7697868
18642.0147267
18650.8607104
19571.202213
19570.6056397
19571.4756117
18625.6912737
18624.7138613
18657.264164
18644.9105933
19569.3918869
19571.0883476
19568.6985029
18624.7660418
18506.4033451
18621.4497261
18372.0131358
19561.3941736
19564.7950719
19560.7072469
18370.9518056
17809.4125662
18213.0364459
17787.7446239
19557.413194
19558.1344885
19557.9330576
17708.0474805
17555.1222725
17755.2053182
17688.5191807
19571.5141671
18636.2538279
19568.2655699
18599.5193192
18348.7662444
19560.5592071
18202.7887556
17798.9898395
19558.5116278
17781.7484274
17744.9163564
1.32551906682
0.297603016894
0.736399271959
0.094165602404
488.22904298
480.3793142
0.0664368832231
0.0749534053363
0.0689709598421
0.0628723510197
517.86800051
501.081382974
509.466848541
0.0982333157057
0.0850503354303
0.102688837809
0.191620568617
537.756054769
519.698399061
536.631174231
0.0437477897594
0.0341200915577
0.175052728043
0.113567597856
585.287811542
558.395994053
582.550502709
0.0774240791911
0.484554366959
0.125522159676
0.110394033338
605.629692668
596.241864095
609.370898851
0.503782839333
0.276080440323
0.10265596573
0.0739132651471
640.563193195
622.146948872
639.012636014
0.347986183692
0.477967626229
0.102810226104
0.178423536719
715.079976711
667.635532423
722.45971983
0.597413024183
2.14879816246
0.540716969735
3.10140550055
867.809855706
796.438131273
881.313865606
5.70648813054
10.2034762146
7.44085286655
11.7570303418
957.304096078
942.825652318
960.868253472
16.858752633
21.3857335339
17.6103651323
21.1429223661
398.307682988
382.231587143
398.426850102
0.392724013239
0.101338953631
0.651761754065
0.273152133804
459.829677727
417.079470481
442.050147474
0.0669734259457
0.067628386835
0.110256609172
0.0609399979589
500.804080846
465.071706506
486.418392277
0.0886503073026
0.156965516335
0.071209759647
0.0537901913369
530.482469508
501.995680774
520.449916574
0.183024868539
0.173645969448
0.137101380257
0.183133818251
576.629771537
542.151750279
565.730053444
0.156984069367
0.151878840893
0.316592868223
0.219977459404
609.005024203
587.648002108
605.019788837
0.0706575505481
0.059766401912
0.191244444757
0.070505209322
639.294810045
619.29724086
636.908902502
0.0467986956605
0.131283528856
0.0934947104618
0.179764762023
724.659236623
665.226333428
724.194356568
0.487631191919
3.51680398496
0.889847161288
3.86362989219
883.464814872
796.281718203
878.506515622
8.18464161715
12.4839974705
8.09326442021
12.4325568094
959.385646616
941.580261724
956.021155727
17.7335544938
20.5412664378
17.6184661414
20.2285242106
389.876269322
373.651465562
382.54048569
1.14622669071
0.610392066423
1.52699719452
0.748659981376
422.820353591
394.334341865
415.105040336
0.163613163527
0.0690266241586
0.182297905033
0.0699824732906
470.719854666
440.103122768
458.314524622
0.0516692425134
0.0359358448555
0.0470956063255
0.0290602978701
510.392348358
482.641796533
498.67453909
0.0243606535433
0.116273500414
0.0114527958067
0.762527783712
553.446305955
520.950852808
541.877873093
0.4411288525
0.903169679292
1.65022096746
2.00602810993
591.399043157
562.015416311
577.003094508
0.619973831174
0.477462222638
1.85990120639
1.22620226429
628.634694855
594.442735887
615.54399422
0.296565617608
0.392090424196
0.903648853375
0.68906801061
713.955410686
643.981860277
698.561848089
0.933392720391
3.47878787413
1.21724304916
3.09300411666
868.092464553
774.850467913
856.841159331
7.16866050621
11.4054994537
6.5484296085
10.7006598335
953.143926899
918.425283705
943.475845864
16.1328462073
18.5303681749
15.3986311894
18.1064733067
419.569841287
431.188099648
0.099093626356
0.0536928519086
0.404526964109
465.847472016
456.683961886
474.14046003
0.0367260190069
0.0360345210116
0.51864581069
0.835236285125
500.844802636
488.306358433
505.836467327
0.622247413297
1.30775663111
1.06418638042
1.04640529408
542.028250907
525.537913377
543.365543721
1.61610253481
1.70639773405
0.989577480382
0.76066697132
572.496784388
560.0956882
570.369012523
1.28209227534
0.878152248351
0.650922818377
0.463984405703
606.302538833
581.956974675
599.154882272
0.376209708634
0.327608390599
0.405481150398
0.299166104933
686.551538221
628.62750226
689.552731295
0.588653562334
2.49677829321
0.993067477654
3.25937272879
850.034375697
768.079387456
844.459482215
6.08338746675
10.2462118388
6.70814178069
10.344472251
932.412761468
898.046221705
918.259838305
14.7350121792
17.3478028996
14.4077578486
16.7925090723
502.006210216
488.104741773
0.961502882289
0.476903727921
0.971253217572
0.313709686206
541.75733604
508.161264866
529.300694163
0.0629605381934
0.0200034366125
0.0913246306563
0.0921774930463
570.995346166
546.828419445
562.601692598
0.0177463481881
0.0643964495427
0.0488553946766
0.0169608437965
598.248661864
578.813938862
599.914505296
0.0544775615486
0.331362644081
0.234795056446
1.50557627572
701.426542531
644.62740991
717.473411694
1.46427158075
4.48230674734
3.56937944146
6.09482848715
839.925263253
780.420095198
834.288696593
7.94385342593
11.2523317079
8.82858815847
11.267369171
900.054824212
867.261959161
875.128084677
14.4887138408
16.5659354361
13.9280619718
15.7252843917
605.015703748
3.3873669281
727.636052075
4.70411602703
6.34599630897
4.59385978265
5.33685231817
827.054097105
8.5730334836
10.8868158994
6.97298846791
9.6462641793
847.771811895
14.1904690052
16.3201075169
13.493237625
16.1166046853
19533.6257688
19534.7669369
18092.4400938
18149.4254051
19535.6325311
18150.8677983
19531.6366545
19535.3604263
19538.9169068
18174.9662988
18196.9069934
19536.9998233
19536.1622277
18180.8339733
19540.6221301
19537.6714486
18195.9653282
18204.5091876
19538.295857
18242.7801643
19540.1043388
19542.971793
19545.1185478
18252.0925973
18282.4399269
19545.5077671
18255.7083631
19542.6962116
19541.5517933
19540.7924918
18224.9605795
18259.0176536
19539.3506794
19542.3805118
18265.8634064
19543.7087413
19546.8234399
18305.0988279
18299.0406727
19546.0909068
19544.4900566
18279.1974329
19550.5933016
19547.4194987
18357.9846887
18325.4503808
19548.098856
18364.4405222
19550.073569
19552.3119313
19555.1218618
18396.8291906
18413.695811
19553.6508061
18395.343763
19552.5984931
19550.9033867
19549.1665549
18342.4394945
18386.3495057
19548.5243701
19551.7073296
18373.0175823
19552.8620424
19556.3731933
18424.9888818
18410.3661615
19554.9526269
19554.0537023
18401.0122277
19556.9930455
19557.2433886
18448.1088586
18421.9011355
19555.082831
18430.6656467
19559.3147195
19558.8390355
19563.0386882
18457.0313281
18468.7497265
19560.8402824
18446.2431511
19561.1058959
19558.644686
19558.4017727
18437.1972101
18461.0678277
19556.7224383
19560.3483778
18447.0409106
19560.4664495
19563.4890995
18475.2659055
18467.7322752
19562.2837548
19561.957156
18459.6009889
19565.6882683
19564.7355986
18519.7591859
18496.6853845
19563.0943516
18523.9840913
19566.479882
19567.9823964
19569.3181815
18530.272695
18531.9462065
19569.1828653
18532.6735602
19568.1497667
19566.1161598
19564.9826447
18495.3487221
18503.9541905
19564.1227397
19566.436917
18518.641242
19567.8766588
19568.8060601
18526.0568896
18517.6181591
19569.0860523
19567.7367386
18526.3902635
19570.4270077
19570.3116567
18533.7896326
18525.6945305
19569.9396878
18524.1081588
19570.9221399
19570.8991757
19571.7297577
18514.9255762
18516.0975888
19571.1463182
18522.855013
19571.4429834
19570.7817673
19569.5618298
18525.8245863
18532.8378902
19570.082263
19570.1565202
18528.9816788
19571.435144
19571.42835
18522.0751309
18526.098943
19571.9210982
19570.8390252
18529.3752664
19572.1690673
19572.2278128
18497.8798706
18507.2441214
19571.6521716
18504.2898192
19572.9748581
19572.4992933
19572.0371954
18486.6256711
18458.6019949
19571.259192
18494.8867736
19573.1239688
19572.5786085
19572.0338096
18510.8237332
18514.1528918
19572.2764909
19572.6024693
18508.3214118
19572.3532712
19570.4878281
18443.0346721
18489.2887461
19570.654903
19572.3798752
18490.5738942
19562.3738915
19569.0315112
18220.3342256
18352.3049161
19567.9360229
18184.460752
19563.7501056
19555.6074209
19550.1378059
18006.1894591
17758.8714833
19549.4224826
17951.1076919
19557.1030688
19561.5311791
19566.5846325
18325.8798596
18124.7109106
19567.2001381
19560.7520551
18148.1327492
19554.8494985
19549.0416642
17728.7376912
17917.3119898
19549.1309883
19554.4673427
17917.1576778
19542.7163955
19544.9866714
17608.062927
17682.9051066
19545.7170921
17622.7425052
19541.6155852
19538.5621804
19541.0476062
17491.3169606
17488.3623437
17498.6914939
19541.5436922
19537.5041486
19543.3359081
19545.2763826
17670.6321702
17601.8071704
19545.9176847
19543.3177936
17625.7469867
19539.4524264
19542.786216
17437.8604014
17576.856385
19540.9524466
17546.5225958
19541.4478284
19548.3632084
19554.0188415
18398.6328834
18500.5075208
19546.3495016
18616.9520629
19550.675956
19545.0628473
19538.7019763
18264.9176149
18295.0333766
19539.9529516
19540.4201359
18531.7107759
19548.8975119
19552.6860611
18499.6960932
18470.0377915
19548.4087458
18608.7216656
19550.2826254
19546.6770561
19545.191594
18352.6945169
18399.5369477
19542.6568691
19545.1662544
18548.3801759
19540.0542779
19538.1682204
18213.3949928
18262.9960327
19536.8615643
19538.7897062
18342.0748922
19540.819038
19540.4207257
18243.7564504
18287.9360603
19538.4264554
19541.5445792
18316.1465345
19541.9856871
19544.5532849
18322.8854099
18386.5759751
19541.0635159
19543.2321695
18386.8897244
19542.3462266
19544.7039958
18334.9148822
18399.6166132
19543.1622289
19543.5937635
18361.5275109
19544.8610283
19541.7793777
18284.6332526
18311.1509035
19543.2616931
19543.2194084
18335.3037358
19546.7316977
19547.4384935
18319.2712488
18364.4929219
19545.2281097
19548.998821
18344.6735695
19546.1044608
19545.7617646
18353.8536887
18399.1288326
19544.5480633
19547.1153048
18371.2487192
19547.6920715
19550.8520923
18395.2398041
18416.1045825
19549.5973914
19548.9036835
18377.2196206
19553.337505
19549.7232186
18398.9882275
18393.7627622
19552.0347798
19551.3264914
18416.7923662
19555.0910874
19556.4372598
18422.1455988
18463.0469977
19554.3288321
19556.8465267
18441.3905892
19553.4880096
19552.8141388
18423.2915607
18467.6605107
19551.608657
19554.9415851
18439.977232
19555.2543926
19558.4340389
18475.1409879
18481.3382883
19557.1283383
19556.8726856
18455.1116915
19560.3289835
19558.3317062
18466.8722086
18468.552595
19560.1399282
19558.6361818
18471.9222175
19561.9684967
19563.2125984
18474.3948844
18494.2190331
19561.7597752
19563.4986406
18481.3153276
19560.6490584
19559.9281637
18484.2320068
18506.7436632
19558.913193
19561.6067661
18487.9594196
19562.2433206
19564.4456954
18507.6525156
18515.5023013
19563.7047073
19563.1377992
18495.5186356
19566.3701686
19564.6716116
18506.9639419
18503.5402974
19566.1147804
19564.9353797
18514.8249702
19567.712696
19568.6744388
18519.3277255
18525.8412035
19567.4505253
19568.6932022
18524.7034143
19566.2896358
19565.6830305
18513.8941782
18529.4286468
19565.0089686
19566.8890503
18519.7888586
19567.4722021
19568.833857
18529.5528005
18530.3308596
19568.4249164
19567.9507501
18527.5035987
19570.1778688
19569.7325466
18531.5113431
18525.950026
19570.4736485
19569.5314602
18529.8680937
19570.8306354
19571.702636
18526.9323213
18526.9641035
19571.0782662
19571.4885092
18531.0378588
19569.824064
19569.5552423
18529.0033786
18533.9590476
19569.1700161
19570.1664089
18530.4046294
19570.5195027
19571.5900265
18528.2940377
18528.8711094
19571.2242201
19570.8343968
18531.0953815
19572.7990032
19572.3204199
18519.93741
18521.4717289
19572.8546369
19572.1968067
18520.8936234
19572.3009232
19570.0703652
18491.5566104
18432.5129478
19572.2879714
19570.1030321
18494.4628434
19572.6169961
19572.4633846
18524.7198936
18522.7238549
19572.0207184
19572.9538684
18524.9039512
19572.1365386
19570.4827423
18433.2182858
18493.7187405
19569.9709273
19572.553391
18496.0565223
19559.7871882
19565.9203813
18115.2976094
18304.3696227
19559.843387
19566.0261698
18109.7053876
19552.9826953
19548.2854051
17911.497487
17692.0426681
19553.5678448
19547.5905378
17876.2462719
19559.7836096
19566.5180498
18305.2709229
18132.5171104
19565.9432637
19560.5873566
18111.886629
19552.9966098
19548.6262289
17692.9763873
17924.630523
19547.6609985
19554.1464517
17878.8982478
19543.6611974
19544.5030841
17609.013359
17653.3887342
19542.9447609
19545.3837009
17638.5264417
19540.0434853
19541.973304
17589.6073993
17421.5553935
19540.3871328
17586.5238205
19541.3372707
19543.708889
19544.7706074
17652.7084467
17618.6381569
19545.3693493
19543.1513491
17639.3590747
19540.2072754
19542.1999887
17425.7577564
17596.4611346
19540.844084
17587.5866683
19541.434343
19550.3672347
19553.2734784
18505.419071
18528.8532455
19549.6407587
18604.0764103
19550.8417033
19549.2386192
19546.7330644
18442.4111492
18496.7224389
19546.306214
19547.6507286
18586.0510742
19551.0127016
19553.256892
18553.6864632
18596.0945361
19551.3626567
18611.6351965
19551.0868764
19550.6671137
19550.3313584
18533.1933754
18554.6079781
19549.1448426
19550.3623875
18606.0081028
19547.2706128
19546.6782323
18433.8076553
18489.9637602
19545.5111597
19547.1100756
18506.0917059
19547.3664116
19546.6619578
18443.0973423
18472.7920779
19545.560923
19547.9217988
18488.0507798
19548.9052521
19550.2546215
18527.4833437
18543.7857027
19548.5673914
19549.7959681
18534.5292973
19549.01151
19550.3506861
18499.9944248
18538.2436231
19549.3362471
19549.8707049
18514.4044494
19549.814029
19547.5593719
18435.111779
18474.6730939
19548.7501002
19548.8041241
18471.173454
19551.0576825
19552.1019788
18448.8348298
18483.0602182
19550.3939364
19552.6055674
18471.2932767
19550.9305334
19550.9119701
18502.0474598
18509.6730774
19550.0741733
19551.7672094
18498.4188016
19551.8940148
19554.238359
18502.2345462
18517.2955244
19553.2217052
19552.9762263
18494.8046012
19555.8758173
19553.7314648
18484.5150778
18499.0075912
19555.5469764
19554.2719514
18502.4088439
19557.3729635
19558.7011574
18499.4658461
18525.1480826
19557.2562291
19558.9715348
18507.1893985