/*--------------------------------*- C++ -*----------------------------------*\
| =========                 |                                                 |
| \\      /  F ield         | OpenFOAM: The Open Source CFD Toolbox           |
|  \\    /   O peration     | Version:  v1906                                 |
|   \\  /    A nd           | Web:      www.OpenFOAM.com                      |
|    \\/     M anipulation  |                                                 |
\*---------------------------------------------------------------------------*/
FoamFile
{
    version     2.0;
    format      ascii;
    class       volScalarField;
    location    "3.5";
    object      alpha.water;
}
// * * * * * * * * * * * * * * * * * * * * * * * * * * * * * * * * * * * * * //

dimensions      [0 0 0 0 0 0 0];


internalField   nonuniform List<scalar> 
28582
(
1.00000178491
1.00000195368
1.00000209465
1.00000223453
1.00000162342
1.00000173006
1.00000388726
1.00000428653
0.0267308989997
0.0273962122396
1.1446897053e-06
1.00000329914
0.943353219086
0.941150916165
1.00000417104
1.00000736403
0.940670965579
0.999880938816
0.999911091504
1.00000072338
1.00000123713
1.00000112718
1.00000084921
1.00000214954
1.00000231226
1.00000082721
1.0000025294
1.00000601032
1.00000405304
0.0276883936713
1.56003675789e-06
1.82747501613e-06
1.00000740858
1.00000655227
0.944920313454
0.944136820266
0.999952099627
1.00000446294
1.00000823584
1.00000990999
0.999886108895
0.937171303149
0.999903364776
0.999940921357
0.0273309713024
0.0270295891213
6.31491194925e-05
7.81307277861e-05
0.0274407778736
0.000110010224647
0.999939314961
0.999904888814
0.942700383179
0.944067349045
0.999929701081
0.943055462187
0.999933256416
0.999887819752
0.999886961543
0.941738031594
0.940329463051
0.999872325762
0.941837401283
0.999908420042
0.99985258499
0.999881011792
0.939950735032
0.939725463522
0.999840863134
0.939664920976
0.999882035203
0.999896726903
0.939707154569
0.9395949622
0.999861037771
0.939887505516
0.939645792711
0.999885382016
0.999940712952
0.940494838934
0.942336506038
0.999889259375
0.942341027749
0.999904012634
0.940166992603
0.0262240083253
5.68034687908e-05
0.0253839582488
0.025732544991
3.4000025731e-05
3.89814767971e-05
0.0272139182853
8.62015724285e-05
6.96592368007e-05
0.0280683358318
0.000140530846497
0.0286270601046
9.95834061693e-05
0.999949413944
0.999953818975
0.94506640798
0.943984457786
0.999960757525
0.999930106714
0.943998305912
0.999949199302
0.999973301228
0.944891964062
0.943785699542
0.99997285418
0.999953069393
0.943931755864
0.944007313137
0.943417076342
0.999956343474
0.999989843046
0.943501150599
0.999984205115
0.943639971184
0.999901449505
0.939462794085
0.939510512054
0.999884753033
0.938988186186
0.999898966279
0.93879674282
0.999882839634
0.999881612771
0.938242460989
0.935798306101
0.999882931855
0.999865994585
0.937601624513
0.999947472158
0.999941296256
0.940184091667
0.941657533217
0.940299552257
0.999894665166
0.939281134914
0.938408403041
0.936394777839
0.999922849259
0.999878583999
0.935810853061
0.999877579516
0.937660736179
1.00000315524
1.00000435743
0.0303915604747
5.36168106091e-06
1.00000655084
0.94279157494
1.00001073417
1.00001007278
0.935333663055
0.934434357389
0.925604588511
1.00000940652
1.00000826035
0.920020314512
0.901972193871
0.026675126124
0.0297853235159
0.0323306442119
0.00018123322599
0.000210879858891
0.000286486990362
0.0349818472356
0.0376132060205
0.999921438683
0.999949962339
0.943064786217
0.942780741161
0.99995661557
0.942481108318
0.999949238451
0.999823546323
0.999871953426
0.932498298567
0.933769514086
0.99984609
0.999841157805
0.93125484941
0.999846357986
0.999906122299
0.933807375271
0.932412765672
0.999872473433
0.931418317358
0.999887930583
0.999819412868
0.999804706697
0.924056446757
0.929601637375
0.999777800133
0.92795190803
0.999853501295
0.999638642101
0.999739201767
0.919352835041
0.913903945749
0.999719688297
0.913440940844
0.999654058155
0.999560724874
0.999468942227
0.901631106084
0.90815573234
0.999477301199
0.907206841336
0.99955782482
1.00001250389
1.00000546588
1.00000460418
1.00000498808
0.0177023518842
0.0214156092267
0.0164736437966
0.0191597167116
0.0194467015461
4.39585375529e-06
1.50902095258e-05
2.64527388317e-06
8.50308967438e-06
1.03982713696e-06
8.18915513606e-06
1.00000376249
1.00000463045
0.962932358558
0.965057061039
1.0000066127
0.966555858022
1.00000634095
1.00000740378
0.96569775621
0.965308805219
1.00001291595
1.00001242109
1.00001350322
0.967093871315
0.960309793295
0.966028160543
0.961665447242
1.0000133255
1.00001125539
0.957431628339
0.943890176156
0.959620217751
0.948820991156
1.00000626976
1.000008343
0.965176367405
0.961838294258
0.960075573098
1.00000381431
1.00000770045
1.0000068535
0.959905625869
0.949678612105
0.958154782575
0.949978819358
0.956546180975
0.949629920408
0.0186072236762
0.0181578848395
0.0185983819536
5.48817510257e-05
0.000118271503221
6.86471714255e-05
0.000122344301649
0.000205830047325
0.00023004712306
0.000198453917055
0.000199997761903
0.0172634996999
0.01649627595
0.0193186402975
0.0167858579379
0.0180599694243
5.79083489365e-05
0.000107101142143
3.55919983588e-05
8.65993473747e-05
0.0226707846046
0.020034852406
0.0213851593623
0.00016886123803
0.000159755133987
0.000145371335347
0.000136639309352
0.0174078311662
0.0173733786098
1.73663296788e-05
6.40149621813e-05
5.1844245175e-05
0.0205572199338
0.0189830066026
0.0203230175845
0.000125456271213
0.000133097153408
0.000102292715726
0.000133392964739
0.99997335845
0.99999006039
0.961498713494
0.963120015994
0.999991545109
0.961950464304
0.999990973076
0.999972014308
1
0.963970700491
0.963109706593
0.999980501071
0.999991053313
0.962687700713
0.999990818212
1
0.965203450292
0.965397233391
0.999992494209
0.999985602201
0.96541088252
0.999995699775
0.999999945816
0.96387517684
0.965706924849
0.999999691628
0.999999256663
0.964684720602
1.00000270463
1.00001389145
0.965521793225
0.964544875046
1.00001048277
1.00000750128
0.964738127797
1
0.999998365921
0.965781077462
0.96640587145
0.999969826598
1
0.966327926848
1
0.99996314088
0.962349624893
0.960599264446
0.999961593164
0.999940396936
0.965352453993
1
1.00001844202
0.966655088216
0.966080629049
1.0000177876
1
0.966784926617
1
0.999988847079
0.961409443433
0.963710507162
0.999957758351
1
0.965839458124
0.999974361886
0.999936669609
0.949682631324
0.952538267724
0.9999384123
0.999929381888
0.95118271606
0.999981062385
0.999932169991
0.942808709308
0.944795598879
0.99995603219
0.950527633749
0.999927112929
0.999977408425
0.99996099495
0.954109166383
0.954001963846
0.999957763758
0.999981399098
0.952510632247
0.999984713116
0.999944970797
0.946993826459
0.94826255865
0.999981678122
0.952132162209
0.999922054574
1.00000228792
1.00001142047
0.965919244915
0.964365035784
1
1.00001222988
0.965145139312
1
0.999989197883
0.964009777008
0.962075398709
1
0.999998724774
0.964689071458
1
0.999991412402
0.961698115639
0.962057312903
0.999998209029
1
0.963916762042
0.999974532453
0.999949020925
0.954832623
0.956644410439
0.999957041039
0.99999394811
0.954424116255
0.999972778824
0.999943368532
0.949359208248
0.950561244851
0.999979262744
0.953803871851
0.999971351511
0.999984325761
0.999978673833
0.956755198563
0.954743036956
0.999993242722
0.999982509326
0.954142196739
0.999979523098
0.999966700502
0.950954156288
0.950400181517
0.999990992785
0.953598308347
0.999981436258
0.999954623699
0.999951831878
0.953872660023
0.952584909386
0.99994541148
0.999967380029
0.950770573838
0.999952497395
0.950068034519
0.999964740572
1.00000136046
1.00000155819
1.00000171116
1.00000078456
1.00000015201
0.999999404744
1.00000140632
1.00000163896
1.0000018048
1.00000210536
1.00000154762
1.00000148881
0.999961958087
0.999978719414
0.999940667586
0.999967816296
0.999993285502
0.999997809464
0.99999820197
0.999998191898
1
1.0000010958
0.999993375009
0.999983019915
0.99998751497
0.999996004054
0.99999869635
0.99999961602
0.999997386885
0.999998060849
0.999999111268
0.999999652681
0.999999780921
0.999999834715
0.999999900008
1.00000046616
0.999999967622
1.00000054597
1.00000071249
1.00000071623
1.0000010131
1.00000090305
1.00000078259
1.00000107762
1.00000131276
1.00000109842
1.00000091356
1.00000156594
0.99990480717
0.999642171228
0.999947212171
0.999993916425
0.999998963788
0.999999791775
1.00000005412
1.00000105392
0.999877638107
0.999865841191
0.999966848435
0.999994471648
0.999999001342
0.999999588325
0.999999937695
1.00000109884
0.99997772708
0.999986646381
0.999997423525
0.999999784773
1.00000018629
1.00000039508
1.0000005816
1.00000151841
1.00000063605
1.00000084904
1.00000080538
1.0000007966
1.0000007282
1.00000063585
1.00000069863
1.00000149489
1.00000186208
1.00000176454
1.00000179935
1.00000293003
0.999758723348
0.999611499856
0.99999120244
0.999999590229
1.00000194657
1.00000279936
1.00000256114
1.00000282721
0.999947417886
0.999773001091
0.99999581136
1.00000026215
1.0000014886
1.00000172237
1.00000151446
1.00000216007
0.99999303537
0.999994284999
0.999998696734
1.0000001097
1.0000007547
1.00000115819
1.00000160544
1.00000256625
0.99999975811
1.00000075053
1.00000083713
1.00000071868
1.00000065535
1.00000069165
1.00000095717
1.0000015277
1.00000259936
1.00000106745
1.00000133472
1.00000168178
1.00000195143
1.00000193074
1.00000242919
1.00000314096
1.00000343972
1.00000396924
1.00000484327
0.999864269487
0.999883564052
0.999998622992
1.00000275884
1.00000997582
1.00001543098
1.00001285063
1.00001191396
1.00000527149
1.00000584772
1.00000432618
1.00000519081
1.00000825241
1.00001033572
1.00001041055
1.00000790957
1.00001075149
1.00000304254
1.0000029494
1.00000380143
1.00000495313
1.00000549232
1.00000565007
1.00000517153
1.00000488664
1
1.00000129756
1.00000654543
1.00000770471
1.00000700055
1.0000040765
1.00000088835
1.00000063481
1.00000118778
0.999998720213
1.000000712
1.00000729386
1.00000511178
1.00000413793
1.00000359405
1.00000233695
0.999999097197
1.00000217128
1.00000255578
1.00000012796
1.0000048912
0.0272998439054
0.0279286496536
0.0275107160061
0.026265932658
0.0275268497781
0.0321713469561
0.0389652115847
0.0431395665199
0.0230802896734
0.0228801936403
0.0250236198462
0.0268466664004
0.0266577555019
0.0256957068467
0.026566039513
0.0315847542485
0.0386381189393
0.0428834109843
0.0211408258762
0.0221098762695
0.0234125331779
0.0250424588876
0.0258004916956
0.0262520153571
0.0279057398856
0.0326176137254
0.0392854766102
0.0439098758733
0.0234072792494
0.0237141727082
0.0249062611463
0.0266416536347
0.0277157732843
0.0293792410131
0.0346417468957
0.0406135862206
0.0450713056299
0.0263701475469
0.026636577553
0.0270992064537
0.0297339886921
0.0354172747589
0.0407597241197
0.0437115885917
0.0352339295181
0.0399790371237
0.0428456132531
4.49497471447e-06
9.53161174218e-08
7.49869658304e-09
6.78413628997e-09
7.14513465003e-28
4.83815295892e-09
2.29790512927e-07
4.34449032884e-06
3.22626896317e-06
7.24758927767e-05
1.40689324566e-06
5.44964380729e-09
3.12477272284e-10
6.26418282119e-09
1.4633564307e-26
2.32396252418e-08
2.87503298669e-07
3.06420386188e-06
4.29665856703e-06
7.86311314817e-05
3.98875023195e-06
3.15570894005e-07
1.21546235471e-08
2.32679215367e-07
8.00203954458e-07
9.33247307064e-07
1.4056530051e-06
5.75870976597e-06
2.62505344709e-06
5.83143700678e-05
9.69118620626e-07
3.32961961986e-07
5.5735121574e-07
1.96926320672e-06
1.30493700113e-06
2.78312788399e-06
9.32337274702e-06
3.36894698306e-06
5.37904027925e-05
8.35238510566e-07
2.63633204604e-07
4.72981067639e-07
4.63780310577e-06
7.066930207e-06
9.50978426677e-06
7.10104839744e-05
4.55127811386e-06
9.46107776698e-06
8.02389562215e-05
0.99995251483
0.999993743793
0.999996685657
0.999875621938
0.999905090134
0.999876418291
0.999892561362
0.999996883394
0.999998509482
1
0.999932109176
0.999883673721
0.999942677239
0.999956501942
1.00000128081
0.999998867945
1.00000082232
0.999989228155
0.999992823057
0.999992565998
0.999996034439
1
1.00000056577
0.999999977849
0.999995667078
0.999994844337
0.99999880784
0.999998790684
0.999857807668
0.999813456117
0.99960916933
0.999860532902
0.999516354414
0.999600822645
0.999513071303
0.999746839547
0.999658865627
0.999811841387
0.999581050182
0.999840361613
0.999513302097
0.999781740532
0.999835632323
0.999991500898
0.999989816073
0.99993379124
0.999679787141
0.999968944107
0.99993038067
0.999903484728
0.99998725538
0.999989483738
0.999585529638
0.999801560098
0.99992921073
0.999952051128
0.999513071324
0.999850719627
0.999570298809
0.999652537809
0.999583215366
0.999793842358
0.999766889659
0.999883183098
0.999690061199
0.999897436384
0.999810153555
0.999970050701
0.999856469665
0.999966214788
0.999778300839
0.99997885117
0.999953250266
0.999947000411
0.999930375717
1.00000320787
1.00000200155
0.999901619875
0.999950307744
0.999970063324
0.999946295791
0.999982508852
1.00000004605
0.999999513679
0.999994321134
1.00000103125
0.926583782331
0.932310550689
0.999805405537
0.999953718487
0.999944512649
0.926761505494
0.929976436653
0.931746945711
0.932735586004
0.999976295295
0.999959394943
0.999988020649
0.930889713633
0.933473533665
0.933153008021
0.935397820836
1.00000010956
0.999999664143
1.00000256204
0.934430886739
0.937902897219
0.936289735258
0.93952835477
1.00000631509
1.00000779432
1.00001101355
0.937912841731
0.936838449718
0.940283256459
0.940525743301
1.00001202801
1.00001206424
1.00001180911
0.936642086823
0.93641549134
0.940618212096
0.939103022778
1.00001586114
1.00001030699
1.00001156081
0.934728596075
0.914378053066
0.936483111492
0.91557911207
1.00001113111
1.00001029196
1.0000106151
0.9055772388
0.887369650517
0.907841459048
0.890681845478
1.00001373382
1.00001525572
1.00002069387
0.888905643013
0.883064806254
0.891668671123
0.880326402584
1.00001212282
1.00000962956
0.942921175086
0.937744758694
0.948898465065
0.945918609923
1.00000797886
1.00000965294
1.00000509969
0.936800121686
0.934768940057
0.944569065744
0.941997545042
1.00000555838
1.00000368808
1.00000220975
0.933964492673
0.934310947042
0.941014426424
0.939796181878
1.00000397377
1.00000119306
1.00000145512
0.934551035911
0.936354551568
0.93976429784
0.94038016103
1.00000730837
1.00000165562
1.00000304183
0.937103864535
0.940491617808
0.940808909905
0.94255412406
1.0000107573
1.00000547308
1.00000707127
0.941216487678
0.942047789052
0.942498195919
0.940761883916
1.00001081282
1.00000810244
1.00000821826
0.942103703907
0.939581848575
0.940600820204
0.93840992185
1.00000754316
1.0000073616
1.00000483534
0.936421974647
0.915417747731
0.935172805195
0.914001653248
1.00000912966
1.00000355725
1.00000250663
0.907980083684
0.891545264185
0.906304912228
0.889385834481
1.00001509897
1.0000078741
1.00000924004
0.89229658198
0.878709247523
0.890328176037
0.877138004616
1.00000465807
1.00000679181
1.00000596804
0.949822236324
0.947169124926
0.950329197179
0.948627095935
1.00000407323
1.00000577319
1.00000569615
0.946056942336
0.94386114723
0.948422205051
0.94770654587
1.00000488295
1.00000674733
1.00000789326
0.943070961149
0.941789505007
0.947499336346
0.946266030351
1.00000557542
1.00000818781
1.00000790701
0.941642552755
0.941914899091
0.945483388614
0.943663654741
1.00000596486
1.00000678149
1.00000609074
0.942224631452
0.94200892274
0.942528339464
0.937273918561
1.00000553669
1.00000423762
1.00000338675
0.941489595317
0.939045077306
0.935956877105
0.93570007892
1.0000052647
1.0000044568
1.00000517795
0.938978244893
0.936868300647
0.936059509476
0.9339493378
1.00000185485
1.00000396889
1.00000259209
0.933680085195
0.912945934293
0.930559159596
0.908261563426
1
1
0.999999641148
0.905041451705
0.887930277339
0.899219142971
0.881452038631
1.00000541077
1.00000585527
1.00000850174
0.888855711142
0.878006556917
0.883039439153
0.878617721309
0.949930687462
0.948010783734
1.00000761579
1.00000631539
0.947876937511
0.947417449222
0.945392030001
1.00000826215
1.00000723113
1.00000920945
0.947539343601
0.946364472749
0.946079886349
0.945196599209
1.00000574114
1.00000861813
1.00000767388
0.945870052034
0.943711675285
0.944505108286
0.943164282258
1.00000161078
1.00000573884
1.00000402334
0.942208088368
0.936666077556
0.942609105776
0.940350885006
1.00000119474
1.00000340177
1.00000263838
0.935331561247
0.934892022383
0.939114190768
0.937120477871
1.00000099829
1.00000243579
1.00000311466
0.935059033712
0.932383748905
0.936847297018
0.931363151358
0.999998319603
1.00000031926
0.999998921716
0.928677884149
0.905775576796
0.925956566512
0.900424640295
0.999999230823
0.999998467375
0.99999852025
0.896859917534
0.880766197848
0.893160071699
0.88412041758
1.00000628477
1.00000562654
1.00000984
0.882332701568
0.879614955478
0.885755150908
0.882974843466
1.00000690537
1.00000569649
0.943189562136
0.942754323621
0.942219155912
1.00000485489
1.00000445258
1.00000448819
0.942963341161
0.942688289162
0.941791115514
0.940981918751
1.00000426366
1.00000485975
1.00000599359
0.941837784551
0.939441457515
0.940700587266
0.938921587557
1.00000251814
1.00000589088
1.00000544471
0.938494391834
0.930281687057
0.93723283617
0.924667842935
0.999998455902
1.00000095829
0.999998658554
0.924503026494
0.899722730197
0.918836248558
0.900798543096
1.00000050876
1.00000047412
1.00000184071
0.893640127401
0.887186917792
0.896949836718
0.89432369678
1.00000734033
1.00000764981
1.00000930484
0.888852328801
0.882400566391
0.895867818009
0.884189711892
1.00000320537
0.923593479373
1.00000148741
0.918124516194
0.901808030807
1.00000414963
0.897902160419
0.895444794959
1.00000658985
0.896688876288
0.884471592175
0.000177983521006
3.85551303851e-05
0.000133705373076
2.24255226284e-05
0.0257863328229
0.0249777244688
9.52970384153e-07
1.70140295433e-07
3.53281632077e-07
1.8396656365e-07
0.0278477810966
0.0263752851624
0.0270882169346
5.96489558801e-07
9.61685574044e-07
6.39798166034e-07
2.47560816589e-06
0.0277939965438
0.0275199471636
0.0274392333919
4.68692142415e-07
2.66741073166e-07
3.41770370608e-06
2.65252344727e-06
0.0267304736918
0.0270914755144
0.0264514562136
1.26855727593e-06
8.48910254959e-06
2.77575684725e-06
2.70689928916e-06
0.0265669131043
0.0259519818818
0.0261137714729
1.69427589399e-05
1.20946650811e-05
2.81757831045e-06
1.81170543275e-06
0.0293339669836
0.0268765976931
0.0287242105734
1.60099239259e-05
7.17192706393e-05
4.82402498225e-06
5.41525156654e-05
0.0353952415103
0.0316798437537
0.0351622105931
0.000152104576628
0.000263903653486
0.000136013247725
0.000262249842375
0.0422457156609
0.0387340401627
0.0419985062074
0.000347774323926
0.000389533850068
0.000353930811772
0.000393847316824
0.0426864759978
0.0428567193387
0.0424211310584
0.000702196048255
0.00121515998548
0.000698994755009
0.00121959893719
0.0225339497339
0.0216078326937
0.0217811163062
8.92537714835e-05
1.7264106671e-05
7.1444507061e-05
1.69527619448e-05
0.0238310506225
0.022150234811
0.0230011539954
8.83064341964e-07
3.45284263447e-07
3.1244044373e-06
3.3362645719e-07
0.0261076708205
0.0240464711364
0.0252014705732
5.20103842034e-07
1.54321914123e-06
4.0437632907e-07
4.28136184392e-07
0.0269419284342
0.0259157439534
0.026183839722
2.60609564425e-06
3.15967884868e-06
2.18821409598e-06
3.83624174205e-06
0.0260968225925
0.0260949520476
0.0257747447574
3.48239077232e-06
3.56853596358e-06
7.87365173815e-06
6.25385638437e-06
0.0258005663278
0.0256712151883
0.0259833805034
1.92734472032e-06
1.15897135846e-06
5.98169746753e-06
2.62540068294e-06
0.0285482123184
0.0269311504701
0.0289358410152
5.31957645238e-06
5.55397149852e-05
1.82287239189e-05
6.78584301962e-05
0.0351160749642
0.0318568713741
0.0353151649037
0.000135562035628
0.000263888739079
0.000154571272839
0.000290737614951
0.0419008146354
0.0387823511901
0.0421044991009
0.000373599099885
0.000424727718414
0.00039288053968
0.000446263879125
0.0424903418135
0.0431633757477
0.0428228284095
0.000740305300488
0.00124512321043
0.000784778310653
0.00126121484828
0.0214827209119
0.0213200978232
0.021936202681
9.21656676865e-05
3.75255681768e-05
0.000122172113687
8.5232300444e-05
0.0227045927061
0.0223906185157
0.0227716480294
1.0013059371e-05
1.64170161723e-06
4.24915768823e-05
2.18093370412e-05
0.0243168372371
0.0232505714217
0.0238463183916
4.02102455723e-08
3.08875810667e-08
1.16190924918e-05
1.56365361404e-06
0.02552464695
0.0247164680799
0.0255250841111
1.84430481664e-07
3.13110441209e-06
3.05598727913e-07
3.76179491657e-05
0.0259268743735
0.0261926894307
0.0266727707297
1.43030256059e-05
3.31223757367e-05
0.000102028165101
0.000146874779012
0.0268197924467
0.0271297825482
0.0276676848551
3.69570186588e-05
3.87742101715e-05
0.000144131489185
0.000117681896301
0.0298518904963
0.0286850624246
0.0307091403248
5.17091366092e-05
0.000101108961885
0.000105977269022
0.000144062352721
0.035847450504
0.0335583169236
0.0366050604423
0.000185969698271
0.000320792741643
0.000225730722899
0.000345834110049
0.0426540047956
0.0399565953915
0.0433217915471
0.000384316332724
0.000422935553549
0.000406987767342
0.000450527637106
0.0436464927247
0.0445947764672
0.0440572063824
0.000703414981443
0.00107510789705
0.000723965349393
0.00107930946704
0.0236109334255
0.0245928780449
7.06127156146e-05
4.72890597835e-05
5.50783465276e-05
0.0240834811171
0.0245339891346
0.0247322224575
2.26708594747e-05
2.62563323729e-06
2.44946105905e-05
2.289731311e-05
0.0257204694804
0.0254616136403
0.0261847737175
1.99730561348e-05
7.09429332833e-05
3.82688104389e-05
4.82214374939e-05
0.0272836470502
0.0267314968447
0.0272050065628
0.000130719320725
0.000152625432618
7.6225947858e-05
8.78307855315e-05
0.0282582264516
0.0276210624266
0.0282403746569
0.00013602621406
0.000109987954296
8.29301438946e-05
8.17510844421e-05
0.0317007756821
0.029598313133
0.0322557809852
0.000104445544033
0.000161399049288
0.000111639760673
0.000188597311901
0.0374542719434
0.0352375733332
0.0380246528094
0.000251105168761
0.000373179845475
0.000288599442738
0.000412419752554
0.043687953496
0.0409163189491
0.0435014350665
0.000431677901709
0.000470009599233
0.000450987479914
0.000468801125935
0.0441831747807
0.0447122893714
0.0437988314942
0.000711729966385
0.00103015194331
0.000689332643287
0.00100874372192
0.0267436086077
0.0270225393466
3.71263035093e-05
2.23832243842e-05
6.62634097938e-05
6.49883300272e-05
0.0267632761133
0.027021841741
0.0269960846421
5.21980344865e-06
1.18495314856e-05
4.81320444374e-05
3.76619636553e-05
0.027951888618
0.0272735409701
0.0282171177894
2.12388081736e-05
4.83674220553e-05
4.32974137903e-05
6.956975817e-05
0.0325927457406
0.0301732980131
0.0328028766461
0.000109767911251
0.000212119789652
0.000138856973451
0.000268428859964
0.0382316202052
0.0353394877047
0.0379942467155
0.000301743401202
0.000405972194087
0.000347673142349
0.000420697999426
0.0428141269269
0.04028629669
0.0421636594342
0.000489187225072
0.000521636254076
0.000480384304959
0.00050785346852
0.0431808800042
0.0429616234019
0.0429295087835
0.000757330654008
0.00110270531601
0.00074124155545
0.00108250277266
0.0327282015147
0.000291160587804
0.0378269966177
0.000349577708394
0.000395678418435
0.000330440741906
0.000371429828171
0.0417281912981
0.000459677097663
0.000495110822931
0.000423848171137
0.000446198282421
0.0429992010503
0.000764844412169
0.00119248939366
0.000686613719597
0.00119068918433
0.999992577752
0.999939393373
0.92586651659
0.927702164341
0.999990179216
0.927463750541
0.999971161619
1.00001217928
0.999960087783
0.929338046568
0.932374719567
1.00000949686
0.999984866955
0.929182107711
0.999941161189
0.999913207241
0.927663173679
0.928633952712
0.999961696351
0.929117639283
0.999910385074
0.999932781635
0.999910082874
0.928995189973
0.930259155884
0.999932843234
0.929498422504
0.999909880727
0.999969800306
0.999952123261
0.930151410238
0.93184046653
0.999988954962
0.999953941868
0.930677905789
0.999962257724
0.999957020847
0.931511336917
0.932318582311
0.999959521247
0.999959888765
0.930928344617
0.999933364364
0.999919740703
0.931958821084
0.931038844725
0.999930375513
0.931660848328
0.999931102969
0.999940352886
0.999938239915
0.932776329935
0.933523830436
0.999948992648
0.932478453909
0.999937312557
0.999950257301
0.999958189368
0.932128409606
0.933867644968
0.999951751143
0.999951575865
0.932623517753
0.999947735254
0.99993297904
0.934295492614
0.934656679423
0.999946416822
0.999941466887
0.933294800059
0.999933403718
0.999936644006
0.935653569571
0.934518703778
0.999942341181
0.935579614991
0.999919719681
0.999898827759
0.99990116219
0.936943103652
0.939107328
0.999856390704
0.937046769701
0.999894346153
0.999932850334
0.999933528857
0.935336614411
0.937479135969
0.999941073908
0.999932340963
0.936381370419
0.999911117324
0.999950217418
0.939099340208
0.938638579101
0.999912566225
0.999937229275
0.93754341282
0.999846953973
0.999897822059
0.937870502382
0.940096586726
0.999855432597
0.940288926367
0.999915436074
0.99982547282
0.999909498024
0.937748540976
0.939126374663
0.999796999471
0.940130154137
0.999929249521
0.999922294503
0.999961109682
0.940267668036
0.94077112598
0.999919856123
0.999972186806
0.940745129985
0.999919708258
0.999964795275
0.940029861624
0.940771080134
0.999903940132
0.999971146207
0.940642017415
0.999771674531
0.999869409075
0.936504884572
0.938597585346
0.99977726301
0.938211200074
0.999851949622
0.999796274055
0.999862986787
0.936507857146
0.937214956814
0.999841425289
0.937955170662
0.99984680355
0.999886759968
0.999954639937
0.939697968141
0.940449607198
0.999894952511
0.999944708879
0.939305216197
0.999886434781
0.999909539464
0.937946842313
0.940030770328
0.999901481058
0.999924138403
0.938795513811
0.999853011742
0.999890724107
0.930733344471
0.934908772749
0.999862597364
0.931208941246
0.999855464492
0.999804214378
0.999711843807
0.923272754185
0.915939774083
0.999703032671
0.92460096608
0.999787731457
0.999874711853
0.999898023935
0.9355101227
0.931523735173
0.99989456967
0.999860108666
0.931495168618
0.999835007414
0.999713347921
0.916265252501
0.923877975988
0.9997439
0.999801230452
0.924802002752
0.999497873412
0.999624734917
0.897862011529
0.906920116868
0.999593758578
0.898972100317
0.999510106576
0.999413153539
0.999372934336
0.891834261733
0.888949179817
0.999379633811
0.893417479929
0.999419501398
0.999538506284
0.999614983524
0.907498865671
0.901154776491
0.999635545019
0.999529190005
0.900105695841
0.9994719391
0.999418361323
0.890136656399
0.895455639
0.999415739191
0.999457615303
0.894693494975
0.999303380546
0.999369544634
0.888736864249
0.890018931769
0.999360073148
0.88975283563
0.999311931095
0.99916797185
0.999257577325
0.878102884819
0.883214987834
0.87940412485
0.999256931904
0.999173534387
0.999308486998
0.999406234901
0.891075951679
0.891440205663
0.999375914212
0.999341122767
0.8905422545
0.999190567408
0.999326292975
0.881369759013
0.881755505917
0.999204271448
0.879950478893
0.999282411343
0.999946416221
0.999901690829
0.937908384781
0.941727570628
0.999927317907
0.943352660757
0.99991180027
0.999979875374
0.99993701403
0.936344945335
0.939742886935
0.999941931675
0.999955396201
0.942593963401
0.999956581023
0.999936438022
0.944049401749
0.946642907628
0.999978040547
0.945698745485
0.999915362797
0.999977207713
0.999957788593
0.94283018599
0.946240492161
0.999968796341
0.999994633424
0.945075486014
0.99999874285
0.999940735268
0.935081579507
0.939522566516
0.999973087461
0.999970085368
0.939385998664
0.999980824153
0.999982311333
0.934972588776
0.936893585489
0.999983718829
0.999973836839
0.937867308577
0.999981982947
0.999953587407
0.942379381057
0.94339702682
0.999974096662
0.999973642695
0.941841222959
0.999976156291
0.999941101855
0.939362704664
0.942850817616
0.9999596621
0.99996413289
0.940237504804
0.999973893479
0.999976823161
0.933902275732
0.936700103969
0.99997162883
0.999969133984
0.936426472224
0.999969957093
0.99998264043
0.934059741292
0.936296946382
0.999980111721
0.999969489573
0.936244291067
0.9999563032
0.999942326745
0.93901653993
0.940579517017
0.999954484445
0.999946994041
0.938511003315
0.999963670279
0.999936553243
0.9381193116
0.940147264873
0.999965659988
0.999943267812
0.938099837206
0.999957905851
0.99998059127
0.935080582694
0.936399230864
0.999967947985
0.999965877684
0.936554328552
0.999952494004
0.999926812931
0.935734027756
0.93749070598
0.999948786637
0.999952623528
0.936853612031
0.99995536145
0.999936976139
0.938135297031
0.939873168847
0.999961376362
0.999937664654
0.938209947445
0.999949604395
0.999935171272
0.938881170307
0.940078253308
0.999942506881
0.999935345371
0.938388193608
0.999950178634
0.999926768438
0.93820615826
0.938326189506
0.999929531343
0.999950734177
0.939131741479
0.999948649035
0.99993245406
0.939446458577
0.940985451227
0.999929040225
0.999943133341
0.939955648758
0.999929979673
0.999937905586
0.939661435005
0.941414382518
0.999930900688
0.9999529225
0.940553254324
0.999926389338
0.99999304089
0.942024455973
0.941960067353
0.999934802139
0.99997536984
0.941301447404
0.999947808791
0.999943565306
0.941745232256
0.941894113165
0.999961153744
0.999950425778
0.942322463246
0.999948668378
0.999951739861
0.941992332183
0.942236059727
0.999961068626
0.999954271272
0.942393934464
0.999953213645
0.999991214563
0.942525611449
0.941963773714
0.999951577401
0.999991416046
0.942725914302
0.99995580731
0.999969385404
0.942266313913
0.941454368525
0.999948073216
0.999981883312
0.942586397121
0.999939506113
0.99993443247
0.941718530392
0.942084946969
0.999926446615
0.999952923392
0.94166205255
0.999931908206
0.999904722541
0.940972573763
0.939734415617
0.999911611927
0.99992194048
0.941073225343
0.999936552701
0.999952580592
0.941989126466
0.9403633876
0.999935726046
0.999945339449
0.941464077283
0.999928814513
0.999935159216
0.939356179763
0.939801214335
0.999915003272
0.999943766665
0.940751650676
0.999860845114
0.999891683989
0.931221917058
0.936504862662
0.999854874064
0.999896608044
0.931137115118
0.99980361789
0.999713112608
0.923529704811
0.915338052765
0.999800110651
0.999702321884
0.923730249761
0.999845968828
0.999913651232
0.936054942471
0.929813296693
0.999891309024
0.999863055627
0.930719065995
0.999777334861
0.999691448514
0.914942475544
0.922220128298
0.999677229577
0.999791197457
0.923315652559
0.999531739269