/*--------------------------------*- C++ -*----------------------------------*\
| =========                 |                                                 |
| \\      /  F ield         | OpenFOAM: The Open Source CFD Toolbox           |
|  \\    /   O peration     | Version:  v1906                                 |
|   \\  /    A nd           | Web:      www.OpenFOAM.com                      |
|    \\/     M anipulation  |                                                 |
\*---------------------------------------------------------------------------*/
FoamFile
{
    version     2.0;
    format      ascii;
    class       volVectorField;
    location    "3.5";
    object      force.turbine;
}
// * * * * * * * * * * * * * * * * * * * * * * * * * * * * * * * * * * * * * //

dimensions      [1 -2 -2 0 0 0 0];


internalField   nonuniform List<vector> 
28582
(
(0 0 0)
(0 0 0)
(0 0 0)
(0 0 0)
(0 0 0)
(0 0 0)
(0 0 0)
(0 0 0)
(0 0 0)
(0 0 0)
(0 0 0)
(0 0 0)
(0 0 0)
(0 0 0)
(0 0 0)
(0 0 0)
(0 0 0)
(0 0 0)
(0 0 0)
(0 0 0)
(0 0 0)
(0 0 0)
(0 0 0)
(0 0 0)
(0 0 0)
(0 0 0)
(0 0 0)
(0 0 0)
(0 0 0)
(0 0 0)
(0 0 0)
(0 0 0)
(0 0 0)
(0 0 0)
(0 0 0)
(0 0 0)
(0 0 0)
(0 0 0)
(0 0 0)
(0 0 0)
(0 0 0)
(0 0 0)
(0 0 0)
(0 0 0)
(0 0 0)
(0 0 0)
(0 0 0)
(0 0 0)
(0 0 0)
(0 0 0)
(0 0 0)
(0 0 0)
(0 0 0)
(0 0 0)
(0 0 0)
(0 0 0)
(0 0 0)
(0 0 0)
(0 0 0)
(0 0 0)
(0 0 0)
(0 0 0)
(0 0 0)
(0 0 0)
(0 0 0)
(0 0 0)
(0 0 0)
(0 0 0)
(0 0 0)
(0 0 0)
(0 0 0)
(0 0 0)
(0 0 0)
(0 0 0)
(0 0 0)
(0 0 0)
(0 0 0)
(0 0 0)
(0 0 0)
(0 0 0)
(0 0 0)
(0 0 0)
(0 0 0)
(0 0 0)
(0 0 0)
(0 0 0)
(0 0 0)
(0 0 0)
(0 0 0)
(0 0 0)
(0 0 0)
(0 0 0)
(0 0 0)
(0 0 0)
(0 0 0)
(0 0 0)
(0 0 0)
(0 0 0)
(0 0 0)
(0 0 0)
(0 0 0)
(0 0 0)
(0 0 0)
(0 0 0)
(0 0 0)
(0 0 0)
(0 0 0)
(0 0 0)
(0 0 0)
(0 0 0)
(0 0 0)
(0 0 0)
(0 0 0)
(0 0 0)
(0 0 0)
(0 0 0)
(0 0 0)
(0 0 0)
(0 0 0)
(0 0 0)
(0 0 0)
(0 0 0)
(0 0 0)
(0 0 0)
(0 0 0)
(0 0 0)
(0 0 0)
(0 0 0)
(0 0 0)
(0 0 0)
(0 0 0)
(0 0 0)
(0 0 0)
(0 0 0)
(0 0 0)
(0 0 0)
(0 0 0)
(0 0 0)
(0 0 0)
(0 0 0)
(0 0 0)
(0 0 0)
(0 0 0)
(0 0 0)
(0 0 0)
(0 0 0)
(0 0 0)
(0 0 0)
(0 0 0)
(0 0 0)
(0 0 0)
(0 0 0)
(0 0 0)
(0 0 0)
(0 0 0)
(0 0 0)
(0 0 0)
(0 0 0)
(0 0 0)
(0 0 0)
(0 0 0)
(0 0 0)
(0 0 0)
(0 0 0)
(0 0 0)
(0 0 0)
(0 0 0)
(0 0 0)
(0 0 0)
(0 0 0)
(0 0 0)
(0 0 0)
(0 0 0)
(0 0 0)
(0 0 0)
(0 0 0)
(0 0 0)
(0 0 0)
(0 0 0)
(0 0 0)
(0 0 0)
(0 0 0)
(0 0 0)
(0 0 0)
(0 0 0)
(0 0 0)
(0 0 0)
(0 0 0)
(0 0 0)
(0 0 0)
(0 0 0)
(0 0 0)
(0 0 0)
(0 0 0)
(0 0 0)
(0 0 0)
(0 0 0)
(0 0 0)
(0 0 0)
(0 0 0)
(0 0 0)
(0 0 0)
(0 0 0)
(0 0 0)
(0 0 0)
(0 0 0)
(0 0 0)
(0 0 0)
(0 0 0)
(0 0 0)
(0 0 0)
(0 0 0)
(0 0 0)
(0 0 0)
(0 0 0)
(0 0 0)
(0 0 0)
(-0.00149782755883 1.98077299555e-05 0)
(0 0 0)
(0 0 0)
(0 0 0)
(0 0 0)
(-2.50685642821e-05 2.9009071296e-08 0)
(0 0 0)
(-2.51967614731e-06 -6.56299593683e-09 0)
(0 0 0)
(0 0 0)
(0 0 0)
(0 0 0)
(0 0 0)
(0 0 0)
(0 0 0)
(0 0 0)
(0 0 0)
(0 0 0)
(0 0 0)
(0 0 0)
(-0.0161552871419 0.000454634452136 0)
(0 0 0)
(0 0 0)
(0 0 0)
(-0.0302278379329 0.000547189289355 0)
(0 0 0)
(0 0 0)
(-0.0286845142919 0.000790243720497 0)
(-0.128554808336 0.00354161932092 0)
(-0.0819217725554 0.00148296138833 0)
(-0.866748288509 -0.00512102714623 0.00010893408206)
(-0.00611019989634 2.95574899693e-05 0)
(-0.081185781748 0.0014696383618 0)
(0 0 0)
(0 0 0)
(0 0 0)
(0 0 0)
(0 0 0)
(-0.0161551402514 0.000454630318414 0)
(0 0 0)
(0 0 0)
(0 0 0)
(-0.0298935473535 0.000541137906356 0)
(0 0 0)
(0 0 0)
(0 0 0)
(0 0 0)
(0 0 0)
(0 0 0)
(0 0 0)
(0 0 0)
(-1.615742477e-05 4.40244130694e-08 0)
(0 0 0)
(-9.83558789988e-06 2.67991954565e-08 0)
(-0.000147169263083 1.21325092146e-06 0)
(-0.000672786468134 5.54639457524e-06 0)
(-8.87177462601e-05 7.31381574825e-07 0)
(-0.00039811650887 3.28203872951e-06 0)
(0 0 0)
(0 0 0)
(-0.000145342112862 5.68447178585e-07 0)
(0 0 0)
(0 0 0)
(0 0 0)
(0 0 0)
(0 0 0)
(0 0 0)
(-0.0070886436413 9.37423925538e-05 0)
(-0.000296458878161 2.9453913786e-06 0)
(-0.00149579309749 1.97808256163e-05 0)
(-3.10240900698e-05 2.05775559719e-07 0)
(-0.000141557244513 1.16698591639e-06 0)
(-3.91026112886e-06 -1.01850501415e-08 0)
(-3.01706294332e-05 2.00114754203e-07 0)
(0 0 0)
(0 0 0)
(0 0 0)
(0 0 0)
(0 0 0)
(-0.000154200786456 6.03094314997e-07 0)
(0 0 0)
(0 0 0)
(0 0 0)
(0 0 0)
(0 0 0)
(0 0 0)
(0 0 0)
(0 0 0)
(0 0 0)
(0 0 0)
(0 0 0)
(0 0 0)
(0 0 0)
(0 0 0)
(0 0 0)
(0 0 0)
(0 0 0)
(0 0 0)
(0 0 0)
(0 0 0)
(-0.00518708999018 2.83051893008e-05 0)
(0 0 0)
(0 0 0)
(0 0 0)
(0 0 0)
(0 0 0)
(-0.00478731363198 2.31581580076e-05 0)
(0 0 0)
(0 0 0)
(0 0 0)
(0 0 0)
(0 0 0)
(0 0 0)
(0 0 0)
(0 0 0)
(0 0 0)
(0 0 0)
(0 0 0)
(0 0 0)
(0 0 0)
(0 0 0)
(0 0 0)
(0 0 0)
(0 0 0)
(0 0 0)
(0 0 0)
(0 0 0)
(0 0 0)
(0 0 0)
(-0.0363350896521 0.000794892166015 0)
(-0.00892953694135 0.000114664519338 0)
(-0.0146955678097 0.000188706338343 0)
(-0.0103094618645 0.000153953429584 0)
(-0.0194483300775 0.000425465448653 0)
(0 0 0)
(0 0 0)
(0 0 0)
(0 0 0)
(0 0 0)
(0 0 0)
(0 0 0)
(0 0 0)
(0 0 0)
(0 0 0)
(-0.00540227588611 2.61329773206e-05 0)
(0 0 0)
(-0.00802898621303 0.000119898592169 0)
(0 0 0)
(0 0 0)
(-0.130711395448 0.00285166750325 0)
(-0.101794303872 0.00222079725622 0)
(-0.198057045342 0.00359073450047 0)
(-0.0436256875965 0.000789719365524 0)
(-0.320805653971 -0.0114974423642 9.52791262538e-05)
(-0.0528654604701 0.00115652227042 0)
(-0.104503810241 0.00189174514525 0)
(-0.276717878662 0.00603702056306 0)
(-1.54680828609 -0.117371749953 0.000783996205227)
(-0.439464302095 0.00285094691221 2.65915796572e-05)
(-0.417131408834 0.00756250876276 0)
(-0.856838222002 -0.0689025596974 0.000454064068761)
(-0.224627514103 0.00407245176888 0)
(-0.516949194932 0.0112780313833 0)
(-0.0617438791929 0.00134703644786 0)
(-0.00909806272543 0.000135863343553 0)
(-0.0206412649243 0.00037365156947 0)
(-0.0206389481312 0.000373609630501 0)
(-0.02497258341 0.000546317928698 0)
(-0.0249731730793 0.000546330828721 0)
(-0.0494329477087 0.000894843342336 0)
(-0.130712747152 0.00285169699271 0)
(-0.101795148093 0.00222081567418 0)
(-0.197496884291 0.00358057889297 0)
(-0.0434300685237 0.000786178236924 0)
(-0.0528682225608 0.00115658269588 0)
(-0.104608013442 0.0018936314487 0)
(-0.244188275102 0.00532733788354 0)
(0 0 0)
(0 0 0)
(0 0 0)
(0 0 0)
(0 0 0)
(0 0 0)
(0 0 0)
(0 0 0)
(0 0 0)
(0 0 0)
(0 0 0)
(0 0 0)
(0 0 0)
(0 0 0)
(0 0 0)
(0 0 0)
(0 0 0)
(0 0 0)
(0 0 0)
(0 0 0)
(0 0 0)
(0 0 0)
(0 0 0)
(-0.00536535842988 2.59543927635e-05 0)
(0 0 0)
(-0.00802898045926 0.000119898506247 0)
(0 0 0)
(0 0 0)
(0 0 0)
(-0.0363343719152 0.000794876464293 0)
(-0.0145237929387 0.000186500570771 0)
(-0.00882026767277 0.000113261388555 0)
(-0.0194490852406 0.000425481969135 0)
(0 0 0)
(-0.010309562371 0.000153954930468 0)
(0 0 0)
(0 0 0)
(0 0 0)
(0 0 0)
(0 0 0)
(0 0 0)
(0 0 0)
(0 0 0)
(0 0 0)
(0 0 0)
(0 0 0)
(0 0 0)
(0 0 0)
(0 0 0)
(0 0 0)
(0 0 0)
(0 0 0)
(0 0 0)
(0 0 0)
(0 0 0)
(0 0 0)
(0 0 0)
(0 0 0)
(0 0 0)
(0 0 0)
(0 0 0)
(0 0 0)
(0 0 0)
(0 0 0)
(0 0 0)
(0 0 0)
(0 0 0)
(0 0 0)
(0 0 0)
(0 0 0)
(0 0 0)
(-0.0151389398126 0.00030055602516 0)
(0 0 0)
(0 0 0)
(0 0 0)
(0 0 0)
(0 0 0)
(0 0 0)
(0 0 0)
(-0.00337808244488 6.70656627788e-05 0)
(0 0 0)
(0 0 0)
(0 0 0)
(0 0 0)
(0 0 0)
(0 0 0)
(0 0 0)
(0 0 0)
(0 0 0)
(0 0 0)
(0 0 0)
(0 0 0)
(0 0 0)
(0 0 0)
(0 0 0)
(0 0 0)
(0 0 0)
(0 0 0)
(0 0 0)
(0 0 0)
(0 0 0)
(0 0 0)
(0 0 0)
(0 0 0)
(0 0 0)
(0 0 0)
(0 0 0)
(-0.324143824833 0.00899024038344 0)
(-0.00777010768601 0.000154261309583 0)
(0 0 0)
(0 0 0)
(0 0 0)
(0 0 0)
(0 0 0)
(0 0 0)
(-0.0711726649533 0.00199177967877 0)
(0 0 0)
(0 0 0)
(0 0 0)
(0 0 0)
(0 0 0)
(0 0 0)
(0 0 0)
(0 0 0)
(0 0 0)
(0 0 0)
(0 0 0)
(0 0 0)
(0 0 0)
(0 0 0)
(0 0 0)
(0 0 0)
(0 0 0)
(0 0 0)
(0 0 0)
(0 0 0)
(0 0 0)
(0 0 0)
(0 0 0)
(0 0 0)
(0 0 0)
(0 0 0)
(0 0 0)
(-1.52511185286 0.054267669939 0)
(-0.0435202777793 0.0015976572918 0)
(0 0 0)
(0 0 0)
(0 0 0)
(0 0 0)
(0 0 0)
(0 0 0)
(-0.334617980851 0.0117754474664 0)
(-0.00661236875624 0.000262848807792 0)
(0 0 0)
(0 0 0)
(0 0 0)
(0 0 0)
(0 0 0)
(0 0 0)
(0 0 0)
(0 0 0)
(0 0 0)
(0 0 0)
(0 0 0)
(0 0 0)
(0 0 0)
(0 0 0)
(0 0 0)
(0 0 0)
(0 0 0)
(0 0 0)
(0 0 0)
(0 0 0)
(0 0 0)
(0 0 0)
(0 0 0)
(0 0 0)
(0 0 0)
(0 0 0)
(0 0 0)
(0 0 0)
(0 0 0)
(0 0 0)
(0 0 0)
(0 0 0)
(0 0 0)
(-2.58171320265 0.0711248803365 0)
(-0.0779624863877 0.00214782668708 0)
(0 0 0)
(0 0 0)
(0 0 0)
(0 0 0)
(0 0 0)
(0 0 0)
(-2.58207691415 0.0711349004025 0)
(-0.576139567024 0.0158723508558 0)
(-0.0161551485124 0.000454630550891 0)
(0 0 0)
(0 0 0)
(0 0 0)
(0 0 0)
(0 0 0)
(0 0 0)
(-0.0472922830363 0.00130287824702 0)
(-0.0779717857271 0.00214808287914 0)
(-0.0161551400435 0.000454630312564 0)
(0 0 0)
(0 0 0)
(0 0 0)
(0 0 0)
(0 0 0)
(0 0 0)
(0 0 0)
(0 0 0)
(0 0 0)
(0 0 0)
(0 0 0)
(0 0 0)
(0 0 0)
(0 0 0)
(0 0 0)
(0 0 0)
(0 0 0)
(0 0 0)
(0 0 0)
(0 0 0)
(0 0 0)
(0 0 0)
(0 0 0)
(0 0 0)
(0 0 0)
(0 0 0)
(-0.0382009929953 0.00050663844766 0)
(-0.00117241554065 1.55043818549e-05 0)
(0 0 0)
(0 0 0)
(0 0 0)
(0 0 0)
(0 0 0)
(0 0 0)
(-0.0197156739709 0.000261477979288 0)
(-0.0322355714864 0.000427522391874 0)
(-0.00779317011489 0.000103059266217 0)
(-0.000199184695203 7.79030769378e-07 0)
(0 0 0)
(0 0 0)
(0 0 0)
(0 0 0)
(0 0 0)
(0 0 0)
(-0.000514474125077 5.11142611721e-06 0)
(-0.000936613108493 1.23860583393e-05 0)
(-0.000174622798329 6.82966795186e-07 0)
(0 0 0)
(0 0 0)
(0 0 0)
(0 0 0)
(0 0 0)
(0 0 0)
(0 0 0)
(0 0 0)
(0 0 0)
(0 0 0)
(0 0 0)
(0 0 0)
(0 0 0)
(0 0 0)
(0 0 0)
(0 0 0)
(0 0 0)
(0 0 0)
(0 0 0)
(0 0 0)
(0 0 0)
(0 0 0)
(0 0 0)
(0 0 0)
(0 0 0)
(0 0 0)
(-0.000192274896845 5.78316386872e-07 0)
(-0.000191434775733 5.75789505754e-07 0)
(-2.46969748995e-05 2.85790720838e-08 0)
(0 0 0)
(0 0 0)
(0 0 0)
(0 0 0)
(0 0 0)
(0 0 0)
(0 0 0)
(-2.47314514709e-05 2.86189679991e-08 0)
(-2.46969244174e-05 2.85790136665e-08 0)
(-2.4984837265e-06 -6.5077960764e-09 0)
(0 0 0)
(0 0 0)
(0 0 0)
(0 0 0)
(0 0 0)
(0 0 0)
(0 0 0)
(0 0 0)
(0 0 0)
(0 0 0)
(0 0 0)
(0 0 0)
(0 0 0)
(0 0 0)
(0 0 0)
(0 0 0)
(0 0 0)
(0 0 0)
(0 0 0)
(0 0 0)
(0 0 0)
(0 0 0)
(0 0 0)
(0 0 0)
(0 0 0)
(0 0 0)
(0 0 0)
(0 0 0)
(0 0 0)
(0 0 0)
(0 0 0)
(0 0 0)
(0 0 0)
(0 0 0)
(0 0 0)
(0 0 0)
(-0.0033779221967 6.70624813436e-05 0)
(-0.00918252273436 0.00018230223306 0)
(-0.00204890378986 4.06772460055e-05 0)
(-0.0872755889673 0.00209038480723 0)
(-0.0178835281097 0.000355044817605 0)
(-0.0529353626713 0.00126788348498 0)
(-0.0108467723271 0.00021534287188 0)
(0 0 0)
(0 0 0)
(0 0 0)
(-0.00242033767614 4.80513880426e-05 0)
(0 0 0)
(0 0 0)
(0 0 0)
(0 0 0)
(0 0 0)
(0 0 0)
(-0.01788503143 0.000355074663288 0)
(-0.00399070425917 7.92281510183e-05 0)
(-0.00399070323434 7.92281306723e-05 0)
(0 0 0)
(0 0 0)
(0 0 0)
(0 0 0)
(0 0 0)
(0 0 0)
(0 0 0)
(0 0 0)
(-0.0711712548091 0.00199174021564 0)
(-0.19658522429 0.00545235875807 0)
(-0.0431568242497 0.00120775139721 0)
(-0.807910064502 0.0259186896122 0)
(-0.178139757041 0.00578663744567 0)
(-0.489895070343 0.0157164006598 0)
(-0.108046869812 0.00350976151044 0)
(0 0 0)
(-0.00471288716766 9.35657748613e-05 0)
(0 0 0)
(-0.0229588593139 0.000769031406726 0)
(0 0 0)
(-0.0122754774549 0.000399101167589 0)
(0 0 0)
(-0.0150332904492 0.000409839060633 0)
(-0.0150356317047 0.000409902888172 0)
(-0.0028594559631 5.6769280348e-05 0)
(-0.178214080578 0.00578905174872 0)
(-0.0378564949887 0.00126804355551 0)
(-0.0378674339951 0.00126840996916 0)
(-0.00744855717736 0.000242168003426 0)
(0 0 0)
(0 0 0)
(0 0 0)
(-0.00337668373188 6.70378938844e-05 0)
(0 0 0)
(0 0 0)
(0 0 0)
(-0.334472778602 0.0117703376948 0)
(-0.909498104907 0.0320058925939 0)
(-0.202879598705 0.00713947902761 0)
(-2.24063282502 0.0760849895154 0)
(-0.494175581302 0.0166402123593 0)
(-1.34359127415 0.0452423085475 0)
(-0.299787662299 0.0100946516827 0)
(0 0 0)
(-0.0263984552553 0.000969104212632 0)
(0 0 0)
(-0.0668945608688 0.00225251862022 0)
(0 0 0)
(-0.0405754798206 0.00136628483143 0)
(0 0 0)
(-0.0746507487904 0.0026270135528 0)
(-0.0746657083433 0.00262753999023 0)
(-0.0141168144928 0.000564598937146 0)
(-0.494355249765 0.0166462622766 0)
(-0.110303733994 0.0037142214774 0)
(-0.110311760165 0.00371449174003 0)
(-0.0246138510496 0.000828814138016 0)
(0 0 0)
(0 0 0)
(0 0 0)
(-0.0134462642453 0.000506533269911 0)
(0 0 0)
(0 0 0)
(0 0 0)
(-7.20898106437 0.204476311758 0)
(-4.28285414365 0.118785215095 0)
(-4.3982323331 0.0797390698837 0)
(-2.09040447733 0.0378986138247 0)
(-0.576024200675 0.0158691725718 0)
(-1.56602815784 0.043143276029 0)
(-0.349424899949 0.00962647755372 0)
(-2.66817387597 0.0483734571175 0)
(-0.282197966249 0.00511619251727 0)
(-1.26712875616 0.0229727901545 0)
(-0.133695945368 0.0024238806692 0)
(0 0 0)
(-0.0472902209153 0.00130282143664 0)
(0 0 0)
(-0.102276621474 0.00185142820821 0)
(0 0 0)
(-0.0484293910108 0.000876676794083 0)
(0 0 0)
(0 0 0)
(0 0 0)
(0 0 0)
(0 0 0)
(0 0 0)
(0 0 0)
(0 0 0)
(0 0 0)
(0 0 0)
(0 0 0)
(0 0 0)
(0 0 0)
(0 0 0)
(0 0 0)
(0 0 0)
(0 0 0)
(0 0 0)
(0 0 0)
(0 0 0)
(0 0 0)
(0 0 0)
(0 0 0)
(0 0 0)
(0 0 0)
(0 0 0)
(0 0 0)
(0 0 0)
(0 0 0)
(0 0 0)
(0 0 0)
(0 0 0)
(0 0 0)
(0 0 0)
(0 0 0)
(0 0 0)
(0 0 0)
(0 0 0)
(0 0 0)
(0 0 0)
(0 0 0)
(0 0 0)
(0 0 0)
(-0.349448502276 0.00962712778576 0)
(-0.576141743698 0.0158724108221 0)
(-1.37040862774 0.00403160036054 0.00010882236858)
(-2.69976082169 0.0489461221069 0)
(-0.136010204127 0.00246583771625 0)
(-0.287030351824 0.00520380269833 0)
(-1.56611304994 0.043145614763 0)
(-0.576141757156 0.0158724111929 0)
(-0.349446050542 0.00962706024173 0)
(-2.69704412225 0.0488968688909 0)
(-1.27123409893 0.0230472191955 0)
(-0.286621278499 0.00519638628102 0)
(-0.135022105747 0.00244792369084 0)
(-0.128554076699 0.0035415991647 0)
(-0.128553836508 0.00354159254754 0)
(-0.0286841957655 0.000790234945257 0)
(-0.770379620535 0.0139668279769 0)
(-0.0799455414664 0.00144718732842 0)
(-0.0805185187151 0.00145755945673 0)
(-0.00598410582446 2.89475223205e-05 0)
(0 0 0)
(0 0 0)
(0 0 0)
(-0.0294178705572 0.000532527126824 0)
(0 0 0)
(0 0 0)
(0 0 0)
(0 0 0)
(0 0 0)
(0 0 0)
(0 0 0)
(0 0 0)
(0 0 0)
(0 0 0)
(0 0 0)
(0 0 0)
(0 0 0)
(0 0 0)
(0 0 0)
(0 0 0)
(0 0 0)
(0 0 0)
(0 0 0)
(0 0 0)
(0 0 0)
(0 0 0)
(0 0 0)
(0 0 0)
(0 0 0)
(0 0 0)
(0 0 0)
(0 0 0)
(0 0 0)
(0 0 0)
(0 0 0)
(0 0 0)
(0 0 0)
(0 0 0)
(0 0 0)
(0 0 0)
(0 0 0)
(0 0 0)
(0 0 0)
(0 0 0)
(0 0 0)
(0 0 0)
(0 0 0)
(0 0 0)
(0 0 0)
(-0.0779719188214 0.00214808654582 0)
(0 0 0)
(0 0 0)
(-0.0492935732843 0.000892320363602 0)
(-0.104063312335 0.00188377117976 0)
(0 0 0)
(0 0 0)
(-0.047292331731 0.00130287958854 0)
(0 0 0)
(0 0 0)
(-0.103941248555 0.00188156156116 0)
(-0.0489845327317 0.000886726060737 0)
(0 0 0)
(0 0 0)
(0 0 0)
(0 0 0)
(0 0 0)
(-0.029685774066 0.000537376760163 0)
(0 0 0)
(0 0 0)
(0 0 0)
(0 0 0)
(0 0 0)
(0 0 0)
(0 0 0)
(0 0 0)
(0 0 0)
(0 0 0)
(0 0 0)
(0 0 0)
(0 0 0)
(0 0 0)
(0 0 0)
(0 0 0)
(0 0 0)
(0 0 0)
(0 0 0)
(0 0 0)
(0 0 0)
(0 0 0)
(0 0 0)
(0 0 0)
(0 0 0)
(0 0 0)
(0 0 0)
(0 0 0)
(0 0 0)
(0 0 0)
(0 0 0)
(0 0 0)
(0 0 0)
(0 0 0)
(0 0 0)
(0 0 0)
(0 0 0)
(0 0 0)
(0 0 0)
(0 0 0)
(0 0 0)
(0 0 0)
(0 0 0)
(0 0 0)
(0 0 0)
(0 0 0)
(0 0 0)
(0 0 0)
(0 0 0)
(0 0 0)
(0 0 0)
(0 0 0)
(0 0 0)
(0 0 0)
(0 0 0)
(0 0 0)
(0 0 0)
(0 0 0)
(0 0 0)
(0 0 0)
(0 0 0)
(0 0 0)
(0 0 0)
(0 0 0)
(0 0 0)
(0 0 0)
(0 0 0)
(0 0 0)
(0 0 0)
(0 0 0)
(0 0 0)
(0 0 0)
(0 0 0)
(0 0 0)
(0 0 0)
(0 0 0)
(0 0 0)
(0 0 0)
(0 0 0)
(0 0 0)
(0 0 0)
(0 0 0)
(0 0 0)
(0 0 0)
(0 0 0)
(0 0 0)
(0 0 0)
(0 0 0)
(0 0 0)
(0 0 0)
(0 0 0)
(0 0 0)
(0 0 0)
(0 0 0)
(0 0 0)
(0 0 0)
(0 0 0)
(0 0 0)
(0 0 0)
(0 0 0)
(0 0 0)
(0 0 0)
(0 0 0)
(0 0 0)
(0 0 0)
(0 0 0)
(0 0 0)
(0 0 0)
(0 0 0)
(0 0 0)
(0 0 0)
(0 0 0)
(0 0 0)
(0 0 0)
(0 0 0)
(0 0 0)
(0 0 0)
(0 0 0)
(0 0 0)
(0 0 0)
(0 0 0)
(0 0 0)
(0 0 0)
(0 0 0)
(0 0 0)
(0 0 0)
(0 0 0)
(0 0 0)
(0 0 0)
(0 0 0)
(0 0 0)
(0 0 0)
(0 0 0)
(0 0 0)
(0 0 0)
(0 0 0)
(0 0 0)
(0 0 0)
(0 0 0)
(0 0 0)
(0 0 0)
(0 0 0)
(0 0 0)
(0 0 0)
(0 0 0)
(0 0 0)
(0 0 0)
(0 0 0)
(0 0 0)
(0 0 0)
(0 0 0)
(0 0 0)
(0 0 0)
(0 0 0)
(0 0 0)
(0 0 0)
(0 0 0)
(0 0 0)
(0 0 0)
(0 0 0)
(0 0 0)
(0 0 0)
(0 0 0)
(0 0 0)
(0 0 0)
(0 0 0)
(0 0 0)
(0 0 0)
(0 0 0)
(0 0 0)
(0 0 0)
(0 0 0)
(0 0 0)
(-0.00175398466862 1.44877505642e-05 0)
(-0.00255025540171 2.10648729124e-05 0)
(-0.00102252958067 8.42964712854e-06 0)
(-0.00152284111497 1.25785262649e-05 0)
(-0.0982879929046 0.00130353878903 0)
(-0.0578152356835 0.00076677120046 0)
(-0.00245813634681 2.03039780691e-05 0)
(-0.00148977185325 1.23053772325e-05 0)
(-0.00149004398287 1.23076249979e-05 0)
(-0.00090236003069 7.43897955174e-06 0)
(-0.00863882914423 0.000114242519983 0)
(-0.0224131700058 0.000297253363552 0)
(-0.00510176432065 6.74672924559e-05 0)
(-0.000547534212305 4.51382560251e-06 0)
(-0.000122215878099 1.00753733228e-06 0)
(-0.00033211062615 2.73789183122e-06 0)
(-7.42395207357e-05 6.12024311694e-07 0)
(0 0 0)
(-0.000662685932053 6.58394662725e-06 0)
(0 0 0)
(-1.44590421061e-05 3.93968006244e-08 0)
(0 0 0)
(-8.79563984075e-06 2.39656310997e-08 0)
(0 0 0)
(0 0 0)
(0 0 0)
(0 0 0)
(0 0 0)
(0 0 0)
(0 0 0)
(0 0 0)
(0 0 0)
(0 0 0)
(0 0 0)
(0 0 0)
(0 0 0)
(0 0 0)
(0 0 0)
(0 0 0)
(0 0 0)
(0 0 0)
(0 0 0)
(0 0 0)
(0 0 0)
(0 0 0)
(0 0 0)
(0 0 0)
(0 0 0)
(0 0 0)
(0 0 0)
(0 0 0)
(0 0 0)
(0 0 0)
(0 0 0)
(0 0 0)
(0 0 0)
(0 0 0)
(0 0 0)
(0 0 0)
(0 0 0)
(0 0 0)
(0 0 0)
(0 0 0)
(0 0 0)
(0 0 0)
(0 0 0)
(-0.0317682288863 0.000421324287823 0)
(-0.00410642865048 5.43046689927e-05 0)
(-0.00682224382805 9.02194399082e-05 0)
(-0.000361450028602 2.97976337636e-06 0)
(-0.000556632712539 4.58883286668e-06 0)
(-7.9334713556e-05 6.54028649113e-07 0)
(-0.000124163623869 1.02359438319e-06 0)
(-0.0203302953536 0.000269629359626 0)
(-0.00693277165165 9.16810936677e-05 0)
(-0.00435948068672 5.76511065508e-05 0)
(-0.000547690647428 4.5151152404e-06 0)
(-0.000332013114871 2.7370879565e-06 0)
(-0.000122479301675 1.00970897389e-06 0)
(-7.40812782525e-05 6.10719774086e-07 0)
(-0.00181132051136 2.39534566849e-05 0)
(-0.00167360459229 2.21322592317e-05 0)
(-0.000369267207926 3.66875992168e-06 0)
(-0.000122162092542 1.00709392871e-06 0)
(-2.6592345951e-05 1.76380833733e-07 0)
(-2.65621814776e-05 1.7618075981e-07 0)
(-3.41647982952e-06 -8.89889887768e-09 0)
(0 0 0)
(0 0 0)
(0 0 0)
(0 0 0)
(0 0 0)
(0 0 0)
(0 0 0)
(0 0 0)
(0 0 0)
(0 0 0)
(0 0 0)
(0 0 0)
(0 0 0)
(0 0 0)
(0 0 0)
(0 0 0)
(0 0 0)
(0 0 0)
(0 0 0)
(0 0 0)
(0 0 0)
(0 0 0)
(0 0 0)
(0 0 0)
(0 0 0)
(0 0 0)
(0 0 0)
(0 0 0)
(0 0 0)
(0 0 0)
(0 0 0)
(0 0 0)
(0 0 0)
(0 0 0)
(0 0 0)
(0 0 0)
(0 0 0)
(0 0 0)
(0 0 0)
(0 0 0)
(0 0 0)
(0 0 0)
(0 0 0)
(0 0 0)
(0 0 0)
(0 0 0)
(0 0 0)
(0 0 0)
(0 0 0)
(-0.000911197999692 1.20499611638e-05 0)
(0 0 0)
(0 0 0)
(-9.5716922503e-06 2.60801544429e-08 0)
(-1.49932972334e-05 4.08524947554e-08 0)
(0 0 0)
(0 0 0)
(-0.000550806512736 5.4723972645e-06 0)
(0 0 0)
(0 0 0)
(-1.45966448313e-05 3.97717291355e-08 0)
(-8.78010967376e-06 2.39233157867e-08 0)
(0 0 0)
(0 0 0)
(0 0 0)
(0 0 0)
(0 0 0)
(0 0 0)
(0 0 0)
(0 0 0)
(0 0 0)
(0 0 0)
(0 0 0)
(0 0 0)
(0 0 0)
(0 0 0)
(0 0 0)
(0 0 0)
(0 0 0)
(0 0 0)
(0 0 0)
(0 0 0)
(0 0 0)
(0 0 0)
(0 0 0)
(0 0 0)
(0 0 0)
(0 0 0)
(0 0 0)
(0 0 0)
(0 0 0)
(0 0 0)
(0 0 0)
(0 0 0)
(0 0 0)
(0 0 0)
(0 0 0)
(0 0 0)
(0 0 0)
(0 0 0)
(0 0 0)
(0 0 0)
(0 0 0)
(0 0 0)
(0 0 0)
(0 0 0)
(0 0 0)
(0 0 0)
(0 0 0)
(0 0 0)
(0 0 0)
(0 0 0)
(0 0 0)
(0 0 0)
(0 0 0)
(0 0 0)
(0 0 0)
(0 0 0)
(0 0 0)
(0 0 0)
(0 0 0)
(0 0 0)
(0 0 0)
(0 0 0)
(0 0 0)
(0 0 0)
(0 0 0)
(0 0 0)
(0 0 0)
(0 0 0)
(0 0 0)
(0 0 0)
(0 0 0)
(0 0 0)
(0 0 0)
(0 0 0)
(0 0 0)
(0 0 0)
(0 0 0)
(0 0 0)
(0 0 0)
(0 0 0)
(0 0 0)
(0 0 0)
(0 0 0)
(0 0 0)
(0 0 0)
(0 0 0)
(0 0 0)
(0 0 0)
(0 0 0)
(0 0 0)
(0 0 0)
(0 0 0)
(0 0 0)
(0 0 0)
(0 0 0)
(0 0 0)
(0 0 0)
(0 0 0)
(0 0 0)
(0 0 0)
(0 0 0)
(0 0 0)
(0 0 0)
(0 0 0)
(0 0 0)
(0 0 0)
(0 0 0)
(0 0 0)
(0 0 0)
(0 0 0)
(0 0 0)
(0 0 0)
(0 0 0)
(0 0 0)
(0 0 0)
(0 0 0)
(0 0 0)
(0 0 0)
(0 0 0)
(0 0 0)
(0 0 0)
(0 0 0)
(0 0 0)
(0 0 0)
(0 0 0)
(0 0 0)
(0 0 0)
(0 0 0)
(0 0 0)
(0 0 0)
(0 0 0)
(0 0 0)
(0 0 0)
(0 0 0)
(0 0 0)
(0 0 0)
(0 0 0)
(0 0 0)
(0 0 0)
(0 0 0)
(0 0 0)
(0 0 0)
(0 0 0)
(0 0 0)
(0 0 0)
(0 0 0)
(0 0 0)
(0 0 0)
(0 0 0)
(0 0 0)
(0 0 0)
(0 0 0)
(0 0 0)
(0 0 0)
(0 0 0)
(0 0 0)
(0 0 0)
(0 0 0)
(0 0 0)
(0 0 0)
(0 0 0)
(0 0 0)
(0 0 0)
(0 0 0)
(0 0 0)
(0 0 0)
(0 0 0)
(0 0 0)
(0 0 0)
(0 0 0)
(0 0 0)
(0 0 0)
(0 0 0)
(0 0 0)
(0 0 0)
(0 0 0)
(0 0 0)
(0 0 0)
(0 0 0)
(0 0 0)
(0 0 0)
(0 0 0)
(0 0 0)
(0 0 0)
(-7.15335365398 0.156669707884 0)
(-5.55779579922 0.121251751739 0)
(-6.39444188871 0.115929948674 0)
(-3.88610621025 0.0704543260125 0)
(-4.90498643486 0.107009724532 0)
(-5.65279963261 0.102484123349 0)
(-8.11420859539 0.178026903188 0)
(-5.55819994781 0.121260568854 0)
(-2.62537112078 0.0572764561453 0)
(-3.03183364312 0.0549665357433 0)
(-3.04172968391 0.0551459489776 0)
(-3.82008099677 0.0833408655833 0)
(-3.81998700367 0.0833388149812 0)
(-4.41055252336 0.0799624324618 0)
(-1.59233796875 0.0347392698556 0)
(-3.37088536295 0.0735409809813 0)
(-1.42955855997 0.025917609913 0)
(-2.35940743256 0.0427755834391 0)
(-2.97494000502 0.0649028319783 0)
(-1.26355687517 0.0229080326687 0)
(-1.80429982736 0.0393635395456 0)
(-0.752160900214 0.0164095317703 0)
(-0.355287594305 0.00775113817362 0)
(-0.67624421947 0.0122601720398 0)
(-0.249114459127 0.00451639516992 0)
(-0.313547331283 0.00684051097674 0)
(-0.597106355526 0.0108254184421 0)
(-0.852290460101 0.0185940101095 0)
(-1.24014953927 0.0270557446669 0)
(-1.59235540762 0.034739650311 0)
(-1.84050774477 0.0333680361943 0)
(-0.678313151444 0.0122976813615 0)
(-2.31694869975 0.0505477528651 0)
(-0.852327978762 0.0185948286361 0)
(-0.985709832454 0.0178707215223 0)
(-0.585800748556 0.0127801325378 0)
(-0.167833846383 0.00366155011989 0)
(-0.194271403804 0.0035221015788 0)
(-0.320576668012 0.0058119906812 0)
(-0.244197415574 0.00532753729681 0)
(-0.402613621132 0.00878362728674 0)
(-0.465741514811 0.0084438002326 0)
(-0.0363340087635 0.000794868519729 0)
(-0.130704262804 0.0028515118938 0)
(-0.0332424510065 0.00060176031058 0)
(-0.0902732458116 0.00163414112955 0)
(-0.115347332633 0.00251647715127 0)
(-0.029326990488 0.000530882000879 0)
(-0.0411717328053 0.000900701998579 0)
(-0.0090978751034 0.000135860541753 0)
(0 0 0)
(-0.00865541511139 0.000111144510621 0)
(0 0 0)
(0 0 0)
(-0.00593756020063 2.87223624513e-05 0)
(-0.0103092117856 0.000153949695102 0)
(-0.0282974320489 0.000619054673302 0)
(-0.0617426936954 0.00134701058443 0)
(-0.0703870615774 0.0012741581548 0)
(-0.0142870448978 0.000183460480284 0)
(-0.0898345114188 0.00195987622965 0)
(-0.0194485472842 0.000425470200421 0)
(-0.0228634578573 0.000413878071097 0)
(-0.00518686673675 2.83039710395e-05 0)
(0 0 0)
(0 0 0)
(0 0 0)
(0 0 0)
(0 0 0)
(-0.00462822046093 2.23885604679e-05 0)
(0 0 0)
(0 0 0)
(0 0 0)
(0 0 0)
(0 0 0)
(0 0 0)
(0 0 0)
(0 0 0)
(0 0 0)
(0 0 0)
(0 0 0)
(0 0 0)
(0 0 0)
(0 0 0)
(0 0 0)
(0 0 0)
(0 0 0)
(0 0 0)
(0 0 0)
(0 0 0)
(0 0 0)
(0 0 0)
(0 0 0)
(0 0 0)
(0 0 0)
(0 0 0)
(0 0 0)
(0 0 0)
(0 0 0)
(0 0 0)
(0 0 0)
(0 0 0)
(0 0 0)
(0 0 0)
(0 0 0)
(0 0 0)
(0 0 0)
(0 0 0)
(0 0 0)
(0 0 0)
(0 0 0)
(0 0 0)
(0 0 0)
(0 0 0)
(0 0 0)
(0 0 0)
(0 0 0)
(0 0 0)
(0 0 0)
(0 0 0)
(0 0 0)
(0 0 0)
(0 0 0)
(0 0 0)
(0 0 0)
(0 0 0)
(0 0 0)
(0 0 0)
(0 0 0)
(0 0 0)
(0 0 0)
(0 0 0)
(0 0 0)
(0 0 0)
(0 0 0)
(0 0 0)
(0 0 0)
(0 0 0)
(0 0 0)
(0 0 0)
(0 0 0)
(0 0 0)
(0 0 0)
(0 0 0)
(0 0 0)
(0 0 0)
(0 0 0)
(0 0 0)
(0 0 0)
(0 0 0)
(0 0 0)
(0 0 0)
(0 0 0)
(0 0 0)
(0 0 0)
(0 0 0)
(0 0 0)
(0 0 0)
(0 0 0)
(0 0 0)
(0 0 0)
(0 0 0)
(0 0 0)
(0 0 0)
(0 0 0)
(0 0 0)
(0 0 0)
(0 0 0)
(0 0 0)
(0 0 0)
(0 0 0)
(0 0 0)
(0 0 0)
(0 0 0)
(0 0 0)
(0 0 0)
(0 0 0)
(0 0 0)
(0 0 0)
(0 0 0)
(0 0 0)
(0 0 0)
(0 0 0)
(0 0 0)
(0 0 0)
(0 0 0)
(0 0 0)
(0 0 0)
(0 0 0)
(0 0 0)
(0 0 0)
(0 0 0)
(0 0 0)
(0 0 0)
(0 0 0)
(0 0 0)
(0 0 0)
(0 0 0)
(0 0 0)
(0 0 0)
(0 0 0)
(0 0 0)
(0 0 0)
(0 0 0)
(0 0 0)
(0 0 0)
(0 0 0)
(0 0 0)
(0 0 0)
(0 0 0)
(0 0 0)
(0 0 0)
(0 0 0)
(0 0 0)
(0 0 0)
(0 0 0)
(0 0 0)
(0 0 0)
(0 0 0)
(0 0 0)
(0 0 0)
(0 0 0)
(0 0 0)
(0 0 0)
(0 0 0)
(0 0 0)
(0 0 0)
(0 0 0)
(0 0 0)
(0 0 0)
(0 0 0)
(0 0 0)
(0 0 0)
(0 0 0)
(0 0 0)
(0 0 0)
(0 0 0)
(0 0 0)
(-1.24012056767 0.0270551126076 0)
(-2.17327264847 -0.103699877314 0.000783972331992)
(-1.87892876995 0.02897471388 2.6453514568e-05)
(-0.685502521404 0.0124280231966 0)
(-2.65667037257 -0.0296339764609 0.000454051043122)
(-0.999119614798 0.0181138381861 0)
(-0.852292094618 0.018594045769 0)
(-1.59239955671 0.0347406134903 0)
(-3.37096553949 0.0735427301542 0)
(-2.3789778512 0.0431303912031 0)
(-1.4481536897 0.0262547358847 0)
(-3.0514949205 0.0480766239627 9.52794612616e-05)
(-1.80438096686 0.039365309727 0)
(-1.28186429853 0.0232399425816 0)
(-0.585797426346 0.0127800600588 0)
(-0.1678303952 0.00366147482709 0)
(-0.324605964401 0.00588504101643 0)
(-0.197423777066 0.00357925347366 0)
(-0.244201933593 0.00532763586426 0)
(-0.473123166988 0.00857762810576 0)
(-0.402595711606 0.00878323656323 0)
(-0.752194284552 0.0164102601003 0)
(-0.355304528103 0.00775150761012 0)
(-0.68630428395 0.0124425589907 0)
(-0.253389500617 0.00459390081452 0)
(-0.852340627548 0.0185951045886 0)
(-0.313566687329 0.00684093325826 0)
(-0.607102223384 0.0110066415211 0)
(-1.59242957178 0.0347412683147 0)
(-3.37097807189 0.0735430035674 0)
(-2.37577144194 0.0430722596464 0)
(-1.44781453539 0.0262485870852 0)
(-2.97497386025 0.0649035705815 0)
(-1.80440744635 0.0393658874173 0)
(-1.27750631722 0.0231609332548 0)
(-1.24016319721 0.0270560426356 0)
(-1.59240343192 0.0347406980339 0)
(-1.85003722958 0.0335408038423 0)
(-0.681987507583 0.0123642967012 0)
(-2.31693657992 0.0505474884525 0)
(-0.8523449196 0.0185951982262 0)
(-0.99331615911 0.0180086226987 0)
(-0.75219787294 0.0164103383865 0)
(-0.355303036834 0.00775147507584 0)
(-0.685976482865 0.0124366160228 0)
(-0.252628867582 0.0045801106902 0)
(-0.852345140844 0.0185952030529 0)
(-0.313560111892 0.00684078980512 0)
(-0.605026783036 0.010969014204 0)
(-0.585808882501 0.0127803099922 0)
(-0.167831177198 0.00366149188758 0)
(-0.322996179872 0.00585585594585 0)
(-0.196633767662 0.00356493076164 0)
(-0.402613529962 0.00878362529772 0)
(-0.244198540643 0.0053275618419 0)
(-0.470393858587 0.00852814629198 0)
(-0.276715896847 0.00603697732675 0)
(-0.965836208601 0.0210711829682 0)
(-0.412327056251 0.00747540681421 0)
(-0.413561000488 0.00749777797569 0)
(-0.51697218602 0.0112785329687 0)
(-0.516970897509 0.0112785048579 0)
(-0.221298655709 0.00401210023399 0)
(-0.130710820254 0.0028516549545 0)
(-0.10179897905 0.00222089925231 0)
(-0.1948023151 0.00353172689409 0)
(-0.042882626699 0.000776268355057 0)
(-0.244202438882 0.00532764688791 0)
(-0.0528675788074 0.00115656861267 0)
(-0.102864294725 0.00186206636597 0)
(-0.130709037276 0.00285161605613 0)
(-0.101794879196 0.00222080980779 0)
(-0.195834969263 0.00355044870691 0)
(-0.0430785596968 0.00077981516638 0)
(-0.244196186782 0.00532751048885 0)
(-0.0528663906778 0.00115654262031 0)
(-0.103113069941 0.0018665697358 0)
(-0.0617430317768 0.00134701796019 0)
(-0.00909784056728 0.000135860026017 0)
(-0.0202957023452 0.000367396138879 0)
(-0.0203395291824 0.000368189499489 0)
(-0.0249727804101 0.000546322238411 0)
(-0.024972221756 0.000546310016899 0)
(-0.0486858493191 0.000881319244522 0)
(0 0 0)
(-0.036335723102 0.000794906023814 0)
(-0.00867677377243 0.00011141877799 0)
(-0.0143257335692 0.000183957282967 0)
(-0.0103095273162 0.000153954406988 0)
(-0.0194488251687 0.000425476279619 0)
(0 0 0)
(0 0 0)
(0 0 0)
(0 0 0)
(0 0 0)
(0 0 0)
(0 0 0)
(0 0 0)
(0 0 0)
(0 0 0)
(-0.00527163186293 2.55009997306e-05 0)
(0 0 0)
(-0.00802901523412 0.000119899025547 0)
(0 0 0)
(0 0 0)
(0 0 0)
(0 0 0)
(0 0 0)
(0 0 0)
(0 0 0)
(0 0 0)
(0 0 0)
(0 0 0)
(0 0 0)
(0 0 0)
(0 0 0)
(0 0 0)
(0 0 0)
(0 0 0)
(0 0 0)
(0 0 0)
(0 0 0)
(0 0 0)
(0 0 0)
(0 0 0)
(0 0 0)
(0 0 0)
(0 0 0)
(0 0 0)
(0 0 0)
(0 0 0)
(0 0 0)
(0 0 0)
(0 0 0)
(0 0 0)
(0 0 0)
(0 0 0)
(0 0 0)
(0 0 0)
(0 0 0)
(0 0 0)
(0 0 0)
(0 0 0)
(0 0 0)
(0 0 0)
(0 0 0)
(0 0 0)
(0 0 0)
(0 0 0)
(0 0 0)
(0 0 0)
(0 0 0)
(0 0 0)
(0 0 0)
(0 0 0)
(0 0 0)
(0 0 0)
(0 0 0)
(0 0 0)
(0 0 0)
(0 0 0)
(0 0 0)
(0 0 0)
(0 0 0)
(0 0 0)
(0 0 0)
(0 0 0)
(0 0 0)
(0 0 0)
(0 0 0)
(0 0 0)
(0 0 0)
(0 0 0)
(0 0 0)
(0 0 0)
(0 0 0)
(0 0 0)
(0 0 0)
(0 0 0)
(0 0 0)
(0 0 0)
(0 0 0)
(0 0 0)
(0 0 0)
(0 0 0)
(0 0 0)
(0 0 0)
(0 0 0)
(0 0 0)
(0 0 0)
(0 0 0)
(0 0 0)
(0 0 0)
(0 0 0)
(0 0 0)
(0 0 0)
(0 0 0)
(0 0 0)
(0 0 0)
(0 0 0)
(0 0 0)
(0 0 0)
(0 0 0)
(0 0 0)
(0 0 0)
(0 0 0)
(0 0 0)
(0 0 0)
(0 0 0)
(0 0 0)
(0 0 0)
(0 0 0)
(0 0 0)
(0 0 0)
(0 0 0)
(0 0 0)
(0 0 0)
(0 0 0)
(0 0 0)
(0 0 0)
(0 0 0)
(0 0 0)
(0 0 0)
(0 0 0)
(0 0 0)
(0 0 0)
(0 0 0)
(0 0 0)
(0 0 0)
(0 0 0)
(0 0 0)
(0 0 0)
(0 0 0)
(0 0 0)
(0 0 0)
(0 0 0)
(0 0 0)
(0 0 0)
(0 0 0)
(0 0 0)
(0 0 0)
(0 0 0)
(0 0 0)
(0 0 0)
(0 0 0)
(0 0 0)
(0 0 0)
(0 0 0)
(0 0 0)
(0 0 0)
(0 0 0)
(0 0 0)
(0 0 0)
(0 0 0)
(0 0 0)
(0 0 0)
(0 0 0)
(0 0 0)
(0 0 0)
(0 0 0)
(0 0 0)
(0 0 0)
(0 0 0)
(0 0 0)
(0 0 0)
(0 0 0)
(0 0 0)
(0 0 0)
(0 0 0)
(0 0 0)
(0 0 0)
(0 0 0)
(0 0 0)
(0 0 0)
(0 0 0)
(0 0 0)
(0 0 0)
(0 0 0)
(0 0 0)
(0 0 0)
(-0.0282974371464 0.000619054784819 0)
(-0.0617398762071 0.00134694911664 0)
(-0.0715843109656 0.00129583095996 0)
(-0.014512451875 0.000186354939746 0)
(-0.089834490628 0.00195987577606 0)
(-0.0232654276372 0.000421154594105 0)
(-0.0194486490645 0.000425472427038 0)
(-0.0363348714032 0.000794887391448 0)
(-0.130708231373 0.00285159847414 0)
(-0.0918682956011 0.00166301498294 0)
(-0.0338127563654 0.000612084071899 0)
(-0.115352176396 0.00251658282531 0)
(-0.0411730001295 0.000900729723462 0)
(-0.0298650937533 0.000540622834608 0)
(-0.00518692471318 2.83042874084e-05 0)
(0 0 0)
(0 0 0)
(0 0 0)
(0 0 0)
(-0.00470652806789 2.2767365801e-05 0)
(0 0 0)
(-0.00909810049414 0.000135863907562 0)
(0 0 0)
(-0.00879997383983 0.000113000794684 0)
(0 0 0)
(-0.0103095967313 0.000153955443578 0)
(0 0 0)
(-0.00604264749956 2.92307119057e-05 0)
(-0.0363346005086 0.000794881465165 0)
(-0.130707240982 0.00285157686726 0)
(-0.0916371561704 0.00165883085898 0)
(-0.0337960625028 0.000611781876856 0)
(-0.115349870586 0.00251653252055 0)
(-0.0411728312057 0.000900726027964 0)
(-0.0298058436367 0.000539550279262 0)
(-0.0282972872078 0.000619051504657 0)
(-0.0617413844867 0.00134698202205 0)
(-0.0713288720377 0.00129120696252 0)
(-0.0144659599153 0.000185757934745 0)
(-0.0898339942746 0.00195986494736 0)
(-0.019448408099 0.000425467155506 0)
(-0.0231933436009 0.000419849717037 0)
(-0.00909812777381 0.000135864314935 0)
(0 0 0)
(-0.00879748548373 0.00011296884161 0)
(0 0 0)