/*--------------------------------*- C++ -*----------------------------------*\
| =========                 |                                                 |
| \\      /  F ield         | OpenFOAM: The Open Source CFD Toolbox           |
|  \\    /   O peration     | Version:  v1906                                 |
|   \\  /    A nd           | Web:      www.OpenFOAM.com                      |
|    \\/     M anipulation  |                                                 |
\*---------------------------------------------------------------------------*/
FoamFile
{
    version     2.0;
    format      ascii;
    class       volScalarField;
    location    "3.5";
    object      p_rgh;
}
// * * * * * * * * * * * * * * * * * * * * * * * * * * * * * * * * * * * * * //

dimensions      [1 -1 -2 0 0 0 0];


internalField   nonuniform List<scalar> 
28582
(
19562.2661593
19561.8580422
19562.9321625
19562.4876771
19564.4742801
19563.8946661
19565.9296299
19565.3499813
588.735662159
603.379429396
0.00365282719117
19565.6394586
18528.8499016
18487.2844218
19565.0360346
19565.4839322
18478.0221198
19563.2346649
19563.9704992
19561.4201423
19561.0724244
19559.7484171
19561.7640921
19561.4937572
19559.9049044
19563.2811679
19562.5911352
19564.3408402
19564.5482923
609.852851797
-0.0361282871297
0.0446672075946
19564.6460654
19565.3892691
18555.6933481
18541.8346117
19565.9415638
19563.8211623
19564.8416471
19563.8753256
19563.1535087
18413.6165639
19563.526722
19563.3299103
601.892548975
595.282504889
1.53484422254
1.88644088575
604.323234678
2.60776016617
19565.9582669
19565.2908772
18516.6464675
18542.5819297
19566.0293478
18523.4483964
19565.6822193
19564.6597932
19564.2854063
18498.5127004
18471.7204149
19563.9286178
18500.4697835
19564.9702696
19563.0164525
19563.873399
18464.1402031
18460.0033457
19563.0273801
18458.7282232
19563.5828148
19563.5716642
18459.4143224
18457.3086108
19563.015943
18462.8427648
18458.2521829
19563.4914482
19564.9255219
18474.3391114
18509.1338639
19563.7175628
18509.2450692
19564.5375831
18468.0650319
577.441844235
1.35791860031
558.985534884
566.661795942
0.828366235185
0.95294471251
599.445489687
2.10484157713
1.71404361025
618.394163996
3.40415207673
630.622974058
2.44124237638
19564.9218965
19564.4934208
18558.8264183
18538.3968388
19564.9593555
19564.2938718
18538.943617
19565.1470465
19565.4792469
18555.7962802
18535.660326
19565.3810088
19565.4291396
18537.9645201
18540.3377427
18529.4302605
19566.1101342
19566.2070077
18530.6709865
19566.2836571
18532.9034177
19563.5653663
18454.9729383
18455.9393093
19562.896458
18446.5064106
19563.4667438
18442.6438225
19562.5209078
19562.8135146
18433.036462
18386.9426871
19563.035651
19561.8539288
18420.4011261
19564.0747587
19564.5058368
18468.5571595
18496.1779916
18470.404155
19562.9571917
18451.4633542
18434.622794
18396.8943864
19562.5113036
19562.201696
18386.4912131
19561.7579971
18420.9474258
19560.1330288
19562.442568
669.673652279
0.16187593455
19565.351057
18517.7567266
19562.5041862
19560.1940947
18379.9124772
18360.7892366
18197.07941
19556.9771334
19553.772106
18091.3097859
17748.0702538
587.363846164
656.395815752
712.545821217
4.38852034429
5.08888405717
6.8997273811
771.038390284
829.030115613
19565.1888875
19565.8872766
18522.7760891
18517.9461363
19565.8366981
18511.9670219
19565.831735
19559.6523765
19562.1552765
18327.0865084
18349.4641816
19560.6477009
19560.8868838
18302.774818
19559.9802372
19561.8718406
18349.4722749
18323.7950541
19561.2046212
18305.3196969
19561.0672271
19558.2071269
19556.7641004
18167.5014344
18272.0115345
19555.6742138
18240.6613511
19559.4439158
19548.0050146
19553.0118318
18078.7012095
17975.2908338
19552.3151383
17966.3994696
19548.4166946
19543.769211
19539.416861
17742.128759
17865.9374732
19539.8766581
17847.8180276
19543.6655472
19571.7579699
19567.2795241
19565.9968453
19564.0098206
390.142480232
471.765899431
362.918524122
422.247608383
428.474320831
0.0426917555738
0.182048091812
0.0886545523652
0.108834093757
0.0575622371288
0.130184405797
19572.3845712
19571.6886618
18892.4709284
18932.2523899
19574.2064718
18962.1222935
19570.1954137
19568.4814227
18943.7316906
18933.4833343
19571.5486005
19569.3884475
19569.0825814
18971.5623148
18844.6411591
18948.0606737
18867.2916454
19567.117951
19564.4381064
18790.6320128
18530.5963347
18829.3336903
18623.1527769
19567.103872
19565.7352425
18931.0045275
18869.7804112
18835.2408823
19564.3911665
19565.109723
19564.1113854
18833.988528
18639.0766258
18799.300983
18644.5100205
18768.4237903
18638.0332225
409.605819925
399.783295533
409.675631183
1.20501233407
2.70493707101
1.53606815977
2.81289807309
4.77548687336
5.3812826095
4.59999507551
4.66198644093
380.253293847
363.365103283
425.697566523
369.896297696
398.05617596
1.32499656502
2.48681959912
0.79192083167
2.00888304029
499.333967496
441.489288387
471.115327456
3.93165442188
3.73182133079
3.3923529958
3.20046368003
383.642367886
382.852622678
0.35495861999
1.47404316046
1.18064366201
452.942212842
418.320961247
447.801262767
2.92518844946
3.11927798968
2.37414629823
3.11880109203
19570.8803822
19572.7030926
18864.1855351
18896.0644736
19572.6887881
18872.7850876
19571.0779616
19570.7761931
19572.3556475
18912.1345268
18894.152167
19572.3046598
19570.7902767
18886.7123215
19574.3660271
19573.3653492
18936.5652836
18940.9904694
19573.6257573
19573.3994476
18941.7215612
19569.8759492
19571.7870827
18908.0797224
18943.0326958
19570.4898454
19570.9931819
18922.7873887
19569.2832513
19569.4506769
18938.4722405
18918.2451413
19570.2866749
19568.5240961
18922.8504379
19572.0080899
19572.6346322
18947.2963094
18957.0775248
19572.1787005
19571.7141877
18956.7478192
19571.539642
19570.3694557
18882.3861162
18848.8288336
19571.3194301
19568.8183104
18939.4783008
19571.0669177
19570.0613714
18960.7570708
18949.6055429
19571.0538786
19569.8866451
18964.3151873
19570.6600053
19568.4824751
18862.9501288
18904.9321424
19568.3540207
19569.4315798
18947.5607104
19565.6201797
19568.178381
18641.9432389
18694.3797784
19565.2661708
19566.2772189
18669.8471201
19564.1548006
19560.2502461
18509.3974727
18547.0021621
19562.5418242
18657.8698692
19560.6770155
19565.4145774
19566.7743287
18723.2001678
18721.2283671
19566.2602909
19565.0778381
18694.2685035
19564.3047967
19561.8248654
18588.2019502
18611.2382035
19563.2416772
18687.823443
19561.0766464
19568.2215664
19569.0208909
18945.8063263
18914.9792902
19568.9563682
19568.157122
18930.7319377
19567.9283124
19567.780816
18909.9110094
18873.0160198
19568.600112
19567.0073243
18923.0809555
19567.1149005
19565.6647661
18865.4796422
18871.6193577
19566.3397032
19566.2552891
18907.9248506
19564.5261197
19566.0599423
18736.337962
18769.4766913
19564.3791458
19565.7230176
18728.8608828
19563.8282779
19561.9951323
18631.5419551
18655.2238804
19563.1749592
18717.7498747
19562.7282178
19564.2893503
19564.6270238
18771.2696253
18733.5007281
19565.190873
19563.6953341
18723.1019935
19563.7255985
19562.5580205
18662.6416227
18650.9510188
19563.1225509
18713.4326366
19562.9783747
19562.0123559
19563.280418
18716.9613132
18691.7182061
19562.4821371
19562.4494412
18658.6647485
19562.2159874
18644.7796181
19562.3746562
19561.1733986
19561.1221922
19560.6481513
19558.058544
19556.5019058
19556.0241799
19561.7839343
19561.7615139
19561.1029656
19557.7572524
19555.8922858
19555.7665491
19548.7208314
19552.9072413
19554.1523998
19558.0543998
19559.1078892
19557.6583195
19555.9987621
19554.0294695
19550.5475658
19555.7834265
19558.9180174
19560.0969744
19559.1673779
19557.6965326
19556.0649769
19554.2400221
19556.8449736
19557.9071393
19559.2055869
19559.5728586
19558.7636124
19557.4301728
19555.9132011
19554.3402278
19559.3769542
19559.5997566
19560.3213337
19560.3108845
19559.2317583
19557.6442359
19555.961878
19554.7879546
19559.4168057
19557.7560545
19556.1512153
19555.3898775
19545.5445641
19548.255905
19555.1824812
19557.509562
19559.5867045
19557.9615702
19555.5762677
19553.2598673
19549.6656924
19553.2105025
19560.6484681
19561.1660504
19559.9190554
19557.9111802
19555.8793856
19553.7928339
19556.6289141
19558.7173185
19559.7621778
19559.8546276
19558.7860614
19557.3184152
19555.5460046
19553.9994773
19559.8988304
19560.2439269
19560.9770055
19560.8408438
19559.5147596
19557.5309409
19555.5041605
19554.5342621
19559.6407684
19557.5170321
19555.5712976
19555.1337694
19542.1174942
19546.2461992
19558.230013
19560.0776807
19560.977702
19557.8693494
19553.3403342
19549.5026578
19549.4950125
19552.1972795
19559.3318015
19561.3422207
19560.9662364
19557.710667
19553.4728565
19549.8711728
19558.0059822
19560.0892856
19560.9926579
19561.0717158
19559.5968098
19557.042076
19552.9428264
19549.6636288
19561.8874622
19561.4805694
19561.8835274
19562.2757795
19561.8276281
19559.9540656
19556.8667563
19552.3364817
19550.2618269
19563.3779547
19563.2426412
19562.3332011
19560.1194917
19556.6331709
19552.5696417
19551.6031374
19556.6364201
19553.1871445
19553.0645679
19546.8011662
19551.802922
19558.0988962
19561.4045593
19562.8194187
19560.6674249
19553.9776837
19549.0762145
19549.7816565
19552.3923468
19557.3459949
19559.9270851
19562.8563791
19563.5727732
19561.1265933
19554.541849
19549.9296355
19562.6901932
19558.9928205
19558.3622451
19561.0312722
19562.4480298
19562.7948607
19563.0422045
19560.2394918
19553.0381301
19548.5863225
19562.7918433
19562.8833901
19563.5086297
19563.6829162
19562.823387
19562.6529442
19558.8854771
19550.9021595
19547.2138272
19564.7413913
19564.9359142
19564.5625632
19563.3682531
19557.9144378
19550.9991321
19549.5468779
19556.9538178
19551.8375407
19551.6368781
600.963948623
614.868355724
605.64557912
578.444629656
606.22488652
708.908790774
858.685141507
950.914966709
508.231002572
503.85605637
550.98363675
591.037951
586.913754705
565.87362222
585.178715315
695.985784983
851.519554263
945.38493582
465.769150406
486.961319992
515.610664053
551.437346114
568.188122504
578.17844246
614.688917111
718.809082125
865.808670947
967.854493728
515.515477348
522.353440139
548.541308097
586.798857795
610.483048466
647.206803153
763.364675379
895.105549752
993.316982569
580.625598411
586.585576798
596.863882102
655.13804896
780.578779319
898.417412362
963.687888658
776.636897941
881.243669924
944.768123652
0.0080208974311
-0.0507806341051
-0.0534221912713
-0.051743758511
-0.0384170221481
-0.0306980908545
0.0119584303359
0.0809915128721
-0.0822115055983
1.30061319465
0.00684504755101
-0.0110254588002
-0.0302846910373
-0.0457942277912
-0.027813148978
-0.0185421545313
0.022790795475
0.0436876203156
-0.062820692921
1.45553904151
0.0561598480558
0.00880252603192
-0.00500313839113
-0.0151614782718
0.00843391660568
0.0036145123211
0.0341028374072
0.114841977899
-0.105701523157
0.954517855605
0.00473731003331
0.00885385871302
-0.00392880489383
0.0329680762191
0.00745110767214
0.0413658827352
0.199358013085
-0.0882459755881
0.84662616188
-0.0508785835967
-0.0186199398061
-0.00883311184252
0.0770724651081
0.135096183301
0.0744568118415
1.28758605144
0.0808260271562
0.082216521289
1.5203183217
19550.9844104
19548.8738732
19552.0650539
19547.1034172
19549.5130791
19547.7131179
19550.054113
19555.2684207
19554.42349
19556.1886916
19551.6499308
19551.420631
19552.1521108
19554.0858332
19553.3713549
19552.8825144
19554.4297545
19550.3045161
19552.7755611
19552.4237385
19554.3843691
19556.9084236
19556.505171
19557.8385269
19554.8289097
19556.1368808
19556.3526224
19557.8884466
19547.4294241
19546.2730642
19547.0346966
19543.4984608
19543.1559672
19543.0759845
19544.8840562
19550.400405
19549.0662633
19553.1854838
19546.2752903
19549.520625
19547.1449612
19551.5616432
19551.170365
19552.3933606
19554.2051797
19549.3635492
19549.0829019
19552.4260564
19553.5315114
19555.1667575
19556.4643511
19559.5063043
19550.3852092
19552.8445331
19555.3767364
19558.3050815
19542.4894909
19545.437629
19544.9396855
19541.4151546
19543.7932854
19545.5594848
19547.7367527
19550.6632643
19548.833515
19553.2284743
19549.2487933
19553.8820963
19551.080306
19556.2690974
19549.8846101
19552.9459787
19554.2391683
19550.3093981
19552.4135588
19553.7566105
19555.8651167
19554.2653058
19556.0189682
19558.4890953
19554.9707268
19557.1404536
19558.3438481
19560.2821546
19545.1184346
19547.8096945
18199.885496
18308.5326718
19548.5510723
19549.9112581
19551.9624298
18205.3459517
18270.0149019
18299.4434003
18321.805623
19555.2697258
19554.2723639
19556.8257729
18287.9758138
18338.0503641
18330.6022957
18374.4534833
19560.3854485
19558.6871827
19560.8469026
18356.4497442
18422.2151611
18391.4997489
18452.9632168
19562.1856662
19561.9375843
19562.8483074
18422.2033484
18402.5645134
18467.2122086
18472.5617249
19562.4610536
19563.25305
19562.8404386
18399.684296
18401.5406255
18475.1131309
18451.9683061
19557.3399302
19560.9839938
19557.7242804
18372.0548166
17986.430959
18404.4806887
18008.9996872
19551.0530064
19554.4969804
19551.5912607
17818.6113656
17473.8546122
17861.9448354
17537.5518455
19549.0063575
19549.8289744
19549.4481341
17504.427862
17376.3924676
17557.556892
17323.4298561
19561.7417487
19558.3878588
18512.4640638
18408.949818
18624.7013691
18567.0297205
19550.0082457
19555.2256978
19553.9107818
18391.3934425
18355.2081126
18541.3172539
18493.5218983
19555.0044833
19555.1195546
19557.3845026
18341.2135742
18351.5385645
18475.5644163
18455.5576711
19558.6278346
19559.28657
19560.5251397
18357.0811196
18392.6554841
18455.79303
18469.0712448
19561.7282367
19561.5542437
19562.53495
18406.9984273
18471.2838397
18477.5549404
18510.8616767
19563.4270448
19563.0468455
19563.367453
18485.015397
18501.6213452
18509.7762503
18477.6410607
19563.0691816
19563.5098558
19562.9132169
18503.5265686
18461.1656062
18475.6006281
18439.6728548
19557.7131512
19560.8341536
19557.334152
18403.2196999
18005.7346763
18380.0137791
17978.7631088
19551.7358117
19554.0351225
19551.1305149
17864.4633107
17554.17334
17832.3845483
17513.1596213
19549.4250673
19549.2533857
19549.202162
17569.737427
17292.6029445
17532.5253813
17263.3814537
19560.8886464
19563.2096335
19562.3002926
18642.2060593
18591.2646526
18652.1755162
18621.21862
19558.0351796
19561.5224975
19560.9862223
18570.3177274
18529.633789
18617.7952795
18605.0416773
19559.6326494
19561.0122098
19561.6082846
18515.154911
18493.4637927
18601.467488
18579.342684
19561.9956742
19562.4322852
19563.0487671
18491.4637002
18498.4281751
18565.2548098
18532.6557562
19562.6973564
19563.107412
19562.8272597
18504.7178354
18500.5404759
18511.3991706
18411.0162856
19562.9825244
19562.605107
19562.7288758
18490.6247735
18445.1675924
18385.9193223
18382.8669211
19562.3857326
19562.7668589
19561.9921836
18445.0825533
18410.7064242
18391.0500546
18357.0025726
19556.5951204
19559.587208
19555.7572821
18351.9187741
17958.7690641
18294.2752509
17869.8795958
19550.1615309
19551.9241625
19549.0265276
17808.321992
17485.270026
17697.0961199
17361.3823958
19548.9287494
19547.4928884
19548.8261662
17504.4245196
17280.390376
17393.5261867
17293.5959126
18644.9447915
18610.3687006
19562.7857671
19563.5254983
18608.4139989
18600.4519238
18563.9965572
19563.1373035
19563.9051393
19564.1325866
18602.9903194
18581.6826217
18577.2999093
18561.2897789
19563.8057218
19564.212783
19564.3671362
18572.9688009
18533.9587488
18548.4784659
18524.5088799
19563.1550201
19564.3796827
19564.0289542
18505.727437
18399.8727279
18514.2068921
18471.2868204
19562.8138011
19563.662598
19563.4503492
18374.4812703
18367.848924
18447.6667098
18411.4675745
19561.585234
19563.000819
19561.4800312
18372.3836405
18327.708627
18407.8501603
18309.6024235
19554.7455802
19558.4220301
19554.1730942
18258.8737764
17822.3635361
18207.7002688
17719.9423921
19548.4292779
19550.6705556
19548.6482448
17651.9075079
17348.2102621
17581.2176983
17412.6621012
19549.102139
19547.9806471
19550.0522012
17380.2164598
17312.9383865
17446.1051304
17377.4706918
19564.8330031
19565.2775326
18524.1030531
18516.9961456
18507.5742202
19564.8434343
19565.2363252
19565.0749901
18521.1494835
18516.2062425
18499.2550189
18483.6324916
19564.2044877
19564.7709157
19564.2625139
18500.054295
18456.3950884
18478.5057387
18447.2211145
19561.2460502
19563.0895259
19560.7292218
18440.003331
18288.953404
18416.5758711
18180.3199611
19553.7947317
19557.2997701
19553.7199194
18179.5834056
17706.3798919
18069.489153
17726.74742
19549.5170476
19551.6074063
19550.5133696
17590.5079118
17471.4769439
17653.9938868
17608.3407275
19551.2102918
19550.8312684
19552.5372703
17505.3471223
17366.7299999
17639.6252882
17401.7094805
19560.1186183
18159.2521957
19553.6633775
18055.4946565
17745.9325991
19551.1320249
17672.1194038
17629.7385326
19553.5676332
17655.4964341
17407.8352857
4.17952548157
0.890386420832
3.10369888017
0.517489985285
567.760506818
549.91196971
0.0444023199053
0.0462943290295
0.0365898245515
0.0374598482868
613.059307086
580.632915884
596.391879293
0.0473733388729
0.0498419490111
0.0434177063741
0.0865991599302
611.906892941
605.86715024
604.113397601
0.0404214271076
0.0349319184851
0.109111753316
0.0919914347001
588.593492178
596.471978966
582.439582334
0.0636999613541
0.244545430088
0.101483199291
0.112199621098
585.050306228
571.501161406
575.067078898
0.46132878294
0.365311088184
0.130956264086
0.12386259742
646.210623838
591.959307375
632.80487492
0.4627516914
1.79228046107
0.202976244692
1.38687927121
780.084124086
698.076860571
774.905867412
3.73007859133
6.38306001002
3.35432126339
6.3371981774
930.716566809
853.586148347
925.290759374
8.34975527378
9.30904706495
8.48643032914
9.40369728052
942.082656474
944.724506723
936.298886912
16.5364337355
28.5745313344
16.4609223065
28.6872871595
496.367229932
476.017286142
479.77770102
2.08564345672
0.424141107072
1.69391926811
0.424891988771
524.745637887
487.927681563
506.537437959
0.0415830342075
0.0346871090703
0.0961715974942
0.0373249005875
574.82177797
529.507888325
554.857894027
0.0436964927113
0.0677369358849
0.0425039875574
0.0406524883385
593.152562899
570.581064
576.476359847
0.0931603648479
0.104427582088
0.0839720514381
0.122989823231
574.648304129
574.558174367
567.600657275
0.118063815852
0.131935823233
0.22375549428
0.198667044578
568.232043493
565.362934717
572.278486457
0.109485712717
0.109390999217
0.207830314763
0.142006551842
628.958783724
593.237736584
637.523927205
0.218656870646
1.42240166646
0.523947429213
1.71854220135
773.872655456
702.024726074
778.304303664
3.35395209128
6.37573817545
3.80357152117
7.00395107791
923.25371081
854.714687877
927.851591356
8.95175379914
10.13347372
9.40492209996
10.6393176069
937.896680239
951.614581022
945.22028216
17.4264266754
29.2899325301
18.4610074016
29.6572890319
473.266273236
469.674510008
483.20897924
2.17162202549
0.903205079576
2.86800236034
2.0065736026
500.044614132
493.190633895
501.587732028
0.259602450375
0.0679920418923
1.01484713298
0.537402856557
535.468105479
512.108321598
525.22035872
0.0355591989357
0.0361776719576
0.305757948013
0.0790646297049
562.049513417
544.296712349
562.102577571
0.0456777724845
0.115888646325
0.0533979404817
0.916509233305
571.042444654
576.887628009
587.505606594
0.386245961341
0.834338149976
2.43518027787
3.49864741538
590.697019327
597.589174048
609.48746561
0.937719573649
0.996511077169
3.45060137796
2.85508343699
657.700471283
631.943608937
676.645047603
1.31730853995
2.50733393973
2.60457357584
3.52758158907
790.102114201
739.543034447
806.822907615
4.55002145739
7.71607008197
5.49007952458
8.3163989444
939.897713202
880.588285558
954.570284743
9.21583676239
10.1045769814
9.75284961302
10.7469693776
962.926479374
982.933629911
971.97144445
16.5803048345
25.3198506602
17.0562047148
25.4089188314
520.038465357
541.580478162
1.6688130597
1.13100655852
1.30886811768
530.477113298
540.336402124
544.750371514
0.569664412643
0.117582375717
0.609841909027
0.5898887965
566.521252625
560.751178843
576.65782463
0.52403773562
1.70857875948
0.948322710811
1.17643286478
600.947098079
588.735897759
599.1911053
3.11479624801
3.63883104187
1.83545535393
2.12052748524
622.454024554
608.36930987
622.066499332
3.26575801486
2.68046109057
2.02292243669
2.01438919578
698.440978202
652.099562817
710.723685161
2.56563915967
3.92971574122
2.73633569785
4.56820901188
825.548117422
776.55344983
838.150164365
6.09437542426
8.97216958711
6.98377175778
9.90494704609
962.586997611
901.802455361
958.537610076
10.3501330843
11.2146040076
10.8195395329
11.2006929946
974.745915077
985.439141921
966.302222793
16.7747259151
24.2576472382
16.2570543266
23.7452353136
588.818324602
594.972210955
0.908573998332
0.563345690422
1.57502175238
1.54924779344
589.421082778
595.01942586
594.52976136
0.163359069645
0.328849305443
1.15517981167
0.929409947406
615.731603227
600.711712674
621.60012977
0.566892212025
1.22674515937
1.0836341711
1.72718410229
718.189265578
664.801579083
722.874083707
2.69596897662
5.12310656212
3.38105959333
6.45025296426
842.682741707
778.962560602
837.535358665
7.30939052737
9.77416441511
8.38785294213
10.1281413652
943.60517658
888.05806923
929.339265991
11.7285618836
12.4423287837
11.5355088251
12.1298966467
952.941245946
947.303716831
947.348687108
17.8277221682
25.9091302911
17.4501260078
25.4343010762
721.320472753
7.0033065585
833.797903281
8.44105165719
9.55051905903
7.99448444825
8.97789073429
919.738568483
11.0435398636
11.8257148921
10.1956579125
10.6845039364
949.09036796
17.9878296041
27.9824675009
16.1803486094
27.930466341
19545.6874242
19546.0149685
18184.3338519
18221.1364494
19547.562247
18214.311276
19544.506299
19547.3506517
19549.6295831
18252.2423919
18308.2296559
19548.9500181
19548.5248338
18247.1995615
19550.4762547
19547.6277695
18224.1464598
18241.0093154
19549.0990087
18251.5398252
19549.4699492
19551.8021619
19552.3270973
18250.6892357
18275.1392146
19552.9103795
18259.8140212
19551.1367188
19551.6687384
19551.0214239
18269.6349346
18302.7467195
19550.393498
19552.4526095
18280.9781521
19552.8458309
19554.6839679
18298.7735137
18312.988089
19553.9012169
19553.7182136
18286.7821865
19554.9041459
19553.6303763
18308.7152009
18290.5917612
19553.945411
18302.8061244
19554.8559855
19556.0450127
19556.8032547
18324.5638831
18338.8912796
19557.0507319
18318.6872798
19555.9546042
19555.7411649
19555.7869495
18311.2691856
18344.7995708
19554.8662503
19556.5961679
18321.1179073
19556.6371783
19557.8175853
18353.5364297
18360.1601671
19557.4454167
19557.275488
18334.1826443
19558.5609082
19557.6290277
18379.745037
18358.0554169
19557.7858435
18378.3146935
19558.3535314
19558.7794023
19559.4568662
18404.1645055
18445.1723937
19558.8574528
18406.0133441
19558.691455
19558.8926813
19558.5092169
18373.5402615
18414.1681612
19558.173889
19559.274004
18393.4771268
19559.2965225
19561.0053282
18444.904547
18436.1815571
19560.0964932
19560.093463
18415.4085624
19559.4433875
19559.629556
18421.4920639
18463.9586333
19559.2607115
18467.5384519
19560.1993708
19559.3238559
19560.6930994
18419.3834384
18446.114956
19559.1908702
18464.6655366
19560.6647146
19561.1185245
19561.6489623
18467.033033
18476.5580499
19560.6967442
19562.2578736
18476.0674121
19561.3819521
19562.9481471
18463.122299
18476.7442211
19561.5354211
19562.5669368
18474.2678335
19559.9988953
19560.5122052
18398.6881561
18436.8056202
19559.3511994
18430.943861
19560.9622218
19561.1729597
19562.4589006
18400.8544646
18416.3917105
19562.3687006
18428.1772657
19561.6716427
19562.4626961
19563.3529473
18457.6252531
18473.3609049
19561.8864471
19563.9008263
18451.60498
19563.1011923
19564.0744417
18430.0594389
18467.4264511
19563.6884029
19564.1066917
18443.9572697
19560.0088496
19562.4052832
18297.2551469
18374.9436562
19562.1315328
18306.0411102
19559.6526855
19555.9036482
19549.5563628
18155.6921677
18016.0866016
19550.1177674
18181.0545458
19555.0088852
19560.575761
19563.1027918
18386.0736861
18311.4317749
19562.8921608
19560.3040639
18311.1418459
19556.7072633
19550.8035624
18022.1858686
18166.5323107
19551.2437428
19556.0219188
18184.6275091
19540.0172565
19544.5118707
17671.9361631
17844.1855123
19544.77687
17693.3854405
19539.4218323
19536.4938141
19533.7816977
17557.7600415
17504.04659
19534.5723456
17588.1455789
19535.8181143
19541.4427538
19546.0022114
17855.2689342
17735.293118
19546.0529398
19541.8656766
17715.1868115
19538.2544135
19536.327694
17526.8871253
17627.5215117
19535.8090457
19538.652277
17612.731425
19529.6400883
19532.5689286
17503.8326169
17525.7091928
19532.8526851
17523.1378038
19529.4957288
19522.5660839
19527.4518718
17305.400057
17378.789992
17329.9826592
19527.3154148
19522.4538034
19530.0520204
19534.49995
17546.050011
17555.391694
19533.57972
19530.767705
17538.2202487
19523.1201254
19527.8195153
17343.5709603
17374.4317982
19524.0774973
17339.9865709
19527.4108306
19557.4291129
19557.6852149
18415.0690824
18487.2564094
19554.9423714
18518.4112417
19558.418664
19556.0700097
19550.37185
18382.984464
18448.0654358
19552.35997
19553.4801558
18503.444132
19558.9041425
19560.8200108
18530.9023264
18580.8194182
19560.3608416
18562.8856782
19559.18616
19557.9556543
19557.9665287
18507.5891315
18572.9276795
19556.0941561
19559.6598476
18551.044887
19552.4722939
19549.1487698
18359.0150288
18443.6034587
19549.3841956
19552.3660395
18441.5130968
19552.3514533
19551.5102792
18357.9418015
18395.7860621
19550.2879586
19552.9817618
18413.2076661
19554.5028546
19556.8317879
18498.7504005
18519.1535529
19554.9366774
19556.4462647
18488.8062449
19554.2838755
19555.8107908
18443.0241848
18509.1245529
19554.4156001
19555.9861841
18458.7086075
19555.0803903
19552.6143432
18341.4884601
18393.2748598
19553.6708965
19553.9056555
18389.2352042
19556.050837
19556.0519602
18345.740009
18389.2375993
19554.9346953
19556.9776936
18387.0727023
19555.9656725
19556.2337083
18437.4465739
18468.3662669
19555.0188855
19557.0591438
18428.9140046
19557.0579614
19558.4772785
18423.814772
18461.2691905
19557.9797191
19557.8242152
18422.3277681
19558.4982298
19557.0832895
18367.8221456
18392.1779955
19557.7408214
19557.8546352
18395.7444954
19559.0056261
19558.3338783
18380.6513243
18414.2171434
19558.1249298
19559.5196586
18401.7905472
19559.3356272
19559.2570139
18425.0074258
18458.5614414
19558.7501194
19559.9045061
18427.0626332
19559.8282787
19560.7927518
18440.5851749
18462.9694752
19560.1574656
19560.3972835
18430.8728031
19560.5858961
19558.9187352
18427.9993131
18430.2783988
19559.6831993
19559.997409
18445.6214876
19561.1627784
19561.1072551
18451.5096885
18480.7301783
19560.3944587
19561.6969772
18461.2076432
19560.8320227
19561.193331
18455.665955
18489.1408386
19560.3746767
19561.8057171
18472.6881808
19561.2990956
19563.1510652
18500.7194629
18499.4663092
19561.9603757
19562.5511358
18486.9296959
19562.4726968
19561.7696805
18495.1767485
18498.0035344
19562.4639296
19562.26134
18506.2483495
19562.8915832
19563.1951304
18500.0917705
18505.4282981
19562.8512305
19563.4924959
18507.8797587
19562.7456384
19563.1872176
18510.2019912
18499.6938037
19562.5310894
19563.2244429
18514.0696907
19563.0494544
19563.3995938
18506.1319816
18490.1849383
19563.3521254
19563.2288709
18511.6482104
19564.388046
19563.4928549
18497.66251
18503.4404338
19563.9979308
19564.0389679
18496.8086831
19564.6810186
19564.1262156
18485.5196029
18464.3624729
19564.193252
19564.4818001
18487.6489515
19564.3103383
19563.696037
18501.7837272
18472.6834715
19563.6895263
19564.2673961
18493.2700966
19564.5828837
19564.4200899
18457.3547282
18464.1085538
19564.2809434
19564.672442
18481.7797164
19560.0841896
19562.9598793
18305.5214245
18404.9794699
19560.0952163
19562.9838199
18303.9445962
19555.8913211
19550.7668183
18159.6651951
18004.1319607
19555.8928715
19550.4502933
18163.5908575
19559.6146871
19562.9030731
18396.5404969
18279.018094
19562.7416466
19559.6333237
18296.0675208
19555.2062671
19549.6090728
17996.6031154
18134.9394021
19549.7435455
19555.0751184
18155.7435724
19541.9235848
19546.107401
17744.3791181
17851.3025945
19542.3713816
19545.76747
17727.6872888
19539.0870714
19537.1353173
17641.237614
17553.8162575
19539.6086658
19537.085145
17633.3699908
19541.1016741
19544.527341
17843.3655933
17705.4487121
19544.9632583
19540.3112971
17719.0193281
19538.3637605
19535.1736674
17547.5703885
17597.1184291
19536.3655489
19537.519186
17624.4254016
19530.6281651
19534.8759114
17565.3104605
17562.8779506
19530.6302971
19534.7663163
17558.2008558
19523.3121868
19526.4623162
17389.328073
17283.3170449
19523.1106712
17393.399874
19526.4320912
19530.0525714
19533.4074022
17557.3063968
17532.6466568
19534.0565099
19529.7129356
17552.6854022
19522.9745053
19526.0375494
17279.0419228
17362.4119322
19522.4309205
17385.1366477
19526.2333142
19561.4642885
19560.9407229
18606.8664752
18618.1947465
19560.7951863
18627.0379058
19561.7964996
19561.1786072
19559.2875743
18597.4525644
18607.029301
19560.4003494
19560.6506761
18622.34009
19562.1082997
19562.3693274
18619.8200111
18630.1341271
19562.5269832
18628.7510252
19562.315662
19562.0518816
19562.2433316
18615.6182596
18620.8332373
19561.792897
19562.5403939
18627.3319174
19559.4692861
19558.3715759
18552.8242017
18598.4415268
19557.9489984
19560.0172966
18587.2034818
19559.2460295
19557.4805941
18543.5665187
18562.8583259
19557.5389831
19559.2584035
18572.371378
19561.1076983
19562.0739873
18610.8967661
18611.6405544
19561.3987814
19562.0962982
18605.7120362
19561.0877947
19562.173476
18590.0840997
18607.7777185
19561.2181689
19562.1497009
18597.3372173
19559.8056461
19557.8516125
18507.5838912
18554.971662
19558.5378554
19559.4220396
18544.3485262
19560.294198
19559.7062662
18499.918221
18526.3812239
19559.1058966
19560.8834356
18532.938847
19561.6187047
19562.3123716
18584.6156802
18595.9468858
19561.3403655
19562.6367802
18578.0361226
19561.9731711
19563.2361016
18556.9774132
18585.9985824
19562.4414807
19562.9902015
18567.6560031
19561.8967216
19560.382663
18492.8935676
18521.8232496
19561.0618723
19561.3837164
18521.0372265
19562.3217658
19561.9669685
18494.2988238
18521.8716831
19561.6159732
19562.6612397
18520.9492923
19563.0354668
19563.469939
18548.1588209
18552.3676617
19562.7835563
19563.6688747
18544.5245748
19563.1732646