/*--------------------------------*- C++ -*----------------------------------*\
| =========                 |                                                 |
| \\      /  F ield         | OpenFOAM: The Open Source CFD Toolbox           |
|  \\    /   O peration     | Version:  v1906                                 |
|   \\  /    A nd           | Web:      www.OpenFOAM.com                      |
|    \\/     M anipulation  |                                                 |
\*---------------------------------------------------------------------------*/
FoamFile
{
    version     2.0;
    format      ascii;
    class       surfaceScalarField;
    location    "6.9";
    object      alphaPhi0.water;
}
// * * * * * * * * * * * * * * * * * * * * * * * * * * * * * * * * * * * * * //

dimensions      [0 3 -1 0 0 0 0];
oriented        oriented;


internalField   nonuniform List<scalar> 
92311
(
0.203577567341
-0.000379723089383
-0.00068064809921
-0.20313866248
0.000621564928125
-0.000246561716064
0.203777182247
-0.0002142686205
0.000261250181238
0.203706993991
-0.00086897264673
-0.000654583894163
-0.203190058608
0.000627017734514
-0.000512189638955
0.203903066508
-0.000249030482978
0.000318629722649
0.204228909695
-0.000453832499041
-0.000438755841618
-0.000547348571931
-0.203344663202
0.000626854463164
-0.000494734042191
-0.00044546103438
-0.000289393441128
-0.000126141630105
-7.28276341363e-05
0.204240986919
-0.000261509005025
0.000477602479333
-0.000252026176559
0.0511249877202
-0.000165267539049
-0.000184634164003
-0.000172285005791
-0.000174686994241
-0.000114400966861
-0.0508624578996
9.49123502441e-05
-0.0512376760912
0.0512559557615
-6.58836862773e-05
-9.66875796773e-05
-0.000102348110994
-6.53618955073e-05
-7.84964866739e-05
0.000101100986301
2.16944201234e-05
-0.000120126858088
2.40236591587e-05
2.4673343475e-05
2.85384651867e-05
-0.000253457912239
-0.000105952732052
8.12981666699e-06
0.000203454467095
-0.00061453023267
0.000162435189138
3.69068342059e-06
0.000551663801903
-4.10648400636e-06
-8.88681233934e-06
3.17817417844e-06
2.83897186417e-06
-0.000211557483583
1.21683212526e-24
-3.0246999333e-06
-3.40430739692e-06
-4.31169015575e-06
-1.75583024409e-06
-9.05791930726e-07
-1.27120761595e-07
-4.37631716088e-06
-0.000154043189535
-0.00013033866848
-0.000137391260595
-0.000145566980914
-7.85819253667e-05
9.45939156506e-05
0.000201342441869
0.0110159121777
1.46461745903e-05
-2.80106353065e-05
-0.0110989141009
0.0107755684683
-2.1920642344e-05
0.000147889261476
-0.0108357663891
2.23884331107e-05
-2.45849797666e-05
7.90471983139e-05
-1.00065123081e-07
0.0511749813201
4.31371357649e-07
-4.8147663185e-05
-4.5948973389e-05
-3.05182645628e-05
9.37020368973e-06
0.0511354142591
1.5065544761e-05
-3.29978169879e-05
-3.0975509949e-05
-0.0512397929457
0.000150029402067
-1.63000255084e-05
0.000110330570443
0.0107355169274
3.45805913122e-05
-3.08202756387e-05
2.97416216581e-05
0.012769661006
-2.06497338645e-05
1.13828200288e-05
-0.0127905314786
0.0127605453336
5.51256027068e-05
5.74071409968e-06
-0.0127825095309
-0.000390932180014
0.203551402181
-0.00143146565983
0.00119219589936
-0.20292101674
0.203728594325
-8.79363263417e-05
0.000283947901417
-0.000147608399159
-6.40195097664e-05
0.203613211823
0.0005649933158
-0.000385622336882
-0.00076605835526
0.203537886375
-0.00141176750498
0.00115720856103
-0.202908036115
0.20377631791
-7.29153966234e-05
0.00020363304408
-9.1909575783e-05
-7.10699620203e-05
0.203611846601
0.000487508023115
-0.000315734109428
-0.000305023085632
-0.000411840451458
-0.000409259451023
-0.00134540493498
0.203638406966
0.00106015374625
-0.202694267597
-0.000298806996297
-5.37472845299e-06
1.1468223312e-05
2.40474754797e-05
5.97775426134e-05
0.203857965097
0.000210008531749
1.03513607219e-05
0.0507451292961
-0.00011615694485
-9.11613144539e-05
-0.000110445167534
-9.87072068236e-05
-0.000307585062606
-0.0505680103664
0.000241968158754
0.0510558075948
4.56376272891e-05
6.74642339198e-06
6.96799832993e-06
1.46135262913e-05
1.9014317854e-05
2.07442928244e-05
0.000133406198882
3.57406333323e-06
-0.000547155574304
-2.56276351275e-05
-3.12642102396e-05
-2.9180681926e-05
-3.50526464537e-05
-0.000271922085961
-1.78933478556e-06
-1.01717636975e-06
-1.46719828125e-06
-2.89895014453e-07
2.4220754863e-06
7.53904092043e-08
-1.43246416486e-07
-1.25163326184e-06
0
0
0
0
2.11841492077e-29
0
-3.88563331078e-25
0.00017811260072
-0.000124925087219
-0.000139523398955
-0.000119761053962
-0.000144393099432
0.050929336448
-0.000245499567374
-0.00013283349707
-0.000159164828812
-0.000127595992861
-0.000149268422206
0.050888153525
0.000135422130369
-0.0506858168747
-7.64160574663e-06
0.000101614220856
0.0113725707806
0.000128330405747
-0.000149988762318
-0.0114204585222
-1.43884928868e-05
0.00015167992767
-0.0112479402598
0.00010667960381
-0.000120804148508
0.0111745060935
-0.000152777290644
0.0126637968708
-2.99979182681e-05
2.30950507761e-05
-0.0126362831049
-9.35138075022e-06
6.68124811112e-06
9.11997781908e-06
1.22704893668e-05
3.7400628358e-06
0.0509624679839
8.23937307038e-05
0.0510091304494
8.94691329723e-06
2.56144614125e-05
1.40486220127e-05
1.6049206644e-05
0.000131284228612
1.95355570049e-05
2.0429744417e-05
7.91932746548e-06
5.79069655884e-06
0.0509257504222
8.03403245681e-05
2.26941634509e-05
-1.01675169647e-05
1.83247364002e-05
0.0127454012332
3.01744082139e-05
-1.09105755893e-05
-0.0107466903389
2.79574593758e-05
0.0107473046171
-1.96741324163e-05
5.29404013426e-05
5.12223019434e-06
0.0127341095215
-0.0127055407429
2.46725972499e-05
0.0126854772166
-4.22671248872e-05
5.7913223768e-05
-0.000377372328119
2.23503973769e-05
2.6510918982e-05
2.74610122057e-05
-0.000119766865313
0.000124617797589
7.37724163645e-06
4.35883382032e-06
-1.7419110389e-05
-3.17770580804e-05
-1.63773186266e-05
-6.76386549995e-06
-0.000632085283814
2.43140477357e-05
0.00065322924916
-6.97335823105e-07
-4.58065103909e-06
6.02688246783e-06
-1.9911209438e-06
5.04862838532e-06
-6.6346719997e-06
-3.21044880018e-06
5.06166993175e-06
1.23430873185e-05
1.7913135871e-05
1.17631173055e-05
-9.78493747207e-05
0.000105492114054
-4.12045410655e-06
-1.07570835241e-06
2.97906215041e-07
4.49855976589e-06
0.0127414848143
-1.33798543547e-05
-0.0126950476183
-0.012744287576
-0.000219284862111
-9.18109919634e-06
0.0127809179768
8.97251068463e-06
1.57047866564e-05
0.000202456224058
0.0109207124144
-2.52925405768e-05
0.000216396412246
0.0109726547287
-0.0110716586204
3.84957120918e-06
-0.0126938935159
-1.81994372074e-07
0.0108725940383
1.16781994381e-05
0.0127761801708
-1.45336587258e-05
0.0128215394609
-0.000195025724895
-1.35814813207e-05
1.58897557153e-05
2.37196575122e-05
-0.0128134557088
0.0128322745228
-2.33852734888e-05
1.74029045486e-05
0.000177885354438
-2.29875737015e-05
0.000155989586074
-0.0107906751275
0.010733788985
3.05463036577e-05
0.0128366639672
2.91244762699e-05
2.00446425976e-05
-1.68549750855e-05
-0.0128395815599
-4.89928154751e-05
-3.33909186107e-05
0.0128188219012
3.779271048e-05
3.22081198919e-05
0.0128412510176
-2.62329251489e-05
4.29023768323e-05
5.53900402925e-05
0.0107342411837
-3.44873440987e-05
0.00011053896725
0.0106920098382
4.7004214226e-05
3.89428578976e-05
0.010694261515
5.43289747237e-05
0.0128258907523
-2.72394471291e-05
7.25926520823e-06
-0.012799793988
0.0127812227983
-9.45474737799e-06
5.0030098645e-05
-0.0107213655318
0.0107332846692
-3.8565220374e-05
-0.0106854791704
6.10245861263e-05
0.0106972637094
-2.70845730256e-05
-2.95720349453e-05
3.64987623597e-05
4.61488631602e-05
2.88622815653e-05
-3.47242875904e-05
6.05338599846e-05
-2.08458683655e-05
2.63064851665e-05
-0.0127813052797
0.0127557043925
6.99839178887e-05
5.75166623313e-05
-0.0106677374342
0.0106879332795
-0.0106068615359
0.0106434144656
5.34726008223e-05
5.56273896732e-05
-2.24916269218e-05
-0.0128126326
1.28537568908e-05
-5.98437144692e-05
-0.0105943428399
5.97103530422e-05
-0.0128083749533
6.48472653417e-05
-0.0106601491712
6.39472951895e-06
-0.000332507612607
1.34356266832e-05
1.71289103529e-05
1.47194005605e-05
1.17971749129e-05
9.01634660092e-05
-0.000276589060188
0.000301554584502
-4.90623796922e-06
3.96857873272e-06
3.72917662543e-06
-3.76914093982e-06
0.000272097069979
5.07933342122e-06
1.05553491682e-05
7.93770412653e-06
9.82139430468e-06
-0.000247694616053
0.000320571566805
-0.000509630717884
5.20576787375e-06
1.23136530707e-05
1.37216735012e-05
1.12465806135e-05
-1.09566021842e-05
-0.000235419115591
1.89525843795e-06
-2.19630973946e-06
-2.13219053855e-06
2.7482401446e-06
-3.91122657847e-06
9.98555338322e-08
1.46058274668e-06
-0.000442378693644
-3.46461724175e-05
-5.13735830082e-05
-5.79491854662e-05
-3.36124069379e-05
-7.90584659519e-05
3.8174833418e-07
-1.05397742138e-06
1.19624144731e-06
-1.89470436703e-06
1.41757364797e-06
-9.56628435918e-08
-1.10034112823e-05
-6.93819022087e-05
-6.71930929321e-05
-3.6375688061e-05
-3.70596125198e-05
-0.00021416299973
-0.000194039502094
4.73874366698e-07
-4.5667372519e-08
6.45919784309e-07
3.04103470726e-06
-3.55826295376e-05
-3.13614072755e-05
-3.8505775026e-05
-0.000415038268012
-0.000200380582308
3.06444826342e-07
1.29977369716e-06
-6.30160890231e-05
-0.0126286179163
-0.000133673511462
0.0126570144302
5.25588881551e-05
0.0126362945331
6.92131169864e-05
-7.85681988717e-05
-0.0126160960559
0.000127701067362
0.000126578620702
0.0113063698824
-0.000142522516114
0.000109172583359
0.0113537305918
-0.0113922990687
0.000100178770583
0.0126653536179
-7.435563658e-05
-0.0126088789383
6.03914141796e-05
0.0112984433616
9.8075977674e-05
-5.44351024465e-05
0.012681691972
-0.000136893480504
4.21935336326e-05
-0.0126907649364
4.60088297496e-05
-5.96419314323e-05
0.0127171189896
0.000131789041209
0.000115182427518
-0.000130374483277
0.000158149529096
-0.011236108911
8.13203771601e-05
0.0111564809003
-6.73659101009e-05
3.37229737854e-05
0.0127082923153
8.88007277432e-05
0.011209031015
-6.30412821502e-05
3.76428593079e-05
-0.0112724762088
0.0001862371705
-5.86269527048e-05
0.0111282286408
3.42526044225e-05
-2.20007859691e-05
0.0126971601017
1.65534799308e-05
0.0126734812637
-0.000140602332322
-0.0126477052297
0.000166451498365
-0.0112285142511
0.0111435563478
0.0127031519843
-0.0112874754724
1.95431680566e-05
0.0127561447044
2.20132138706e-06
5.00980833731e-05
0.0107332922522
-3.89195017652e-05
0.0106983667576
5.68975399191e-05
4.85791557008e-07
2.75937695309e-05
0.0127190897098
1.29725906838e-05
-3.42996084658e-05
4.77999947787e-05
0.0107446794546
-3.4702100284e-05
0.0127274815332
1.40021603252e-05
0.0107121008149
5.1439842061e-05
5.76864565888e-06
0.0127006570783
1.18866582104e-05
8.12807670236e-06
-0.012704737143
-9.85156223351e-06
0.0126923741905
2.17350989109e-05
-2.21151356055e-05
3.93104652488e-05
-2.98434209091e-05
-3.69899859145e-06
-0.0107152684954
2.82959832694e-05
0.0107166861712
1.94158010463e-05
2.35780921976e-06
0.0126897620854
3.95071285317e-05
-0.0127304630264
3.57883421479e-05
-4.64109490126e-05
6.17511016075e-05
2.3897341034e-05
6.88821032932e-05
4.86674885482e-05
0.0106911468581
0.0106580390146
3.75100938962e-05
-4.17235379762e-05
0.0106758319009
2.39533933497e-05
8.11466188172e-06
0.0127089270652
0.0107028824585
0.0106734116112
-2.66719058698e-05
4.41217860992e-06
-2.0055988946e-05
-1.24768258343e-05
0.0106732617144
-1.25735394019e-05
-3.25545386468e-05
0.0126741105463
4.53361840646e-05
0.0126896248896
-6.1152590567e-06
1.3153525979e-05
-0.0107048661073
0.010698313276
0.0126798926721
-4.92270455056e-05
-1.19776149351e-05
-4.07538222529e-05
0.000542390386898
0.203680910862
-8.7599968338e-05
-0.00024673347242
-2.72946112182e-05
-2.40118102155e-05
-1.31269032759e-05
-2.27853214137e-05
-1.68541284822e-05
0.000106865790189
0.0509105413139
-1.52279645376e-06
-6.6544244678e-05
5.07555085123e-06
1.40816531001e-06
-6.25870246028e-06
-6.22544637477e-08
-0.000155970302951
-0.000312178042545
0
0
0
0
6.0465675874e-29
0
-3.32069013254e-29
-0.000146846041884
-0.000144249753755
-0.000135149916152
-0.000156491564751
0.000377779045595
-0.000148969179187
0.0511277527854
-1.82406146833e-05
0.000181442909265
-5.09735096064e-05
0.0110543987788
0.0508576395481
-1.77382746518e-05
4.3252878112e-06
-1.08045468402e-05
-2.2749450798e-07
5.35322832938e-05
0.0508411958798
-2.54717166982e-05
-2.39742870882e-05
-3.41464374538e-05
-8.83583505476e-06
6.41872974731e-05
4.10856067846e-06
1.32954661133e-05
0.0107486246522
1.22958367343e-05
-5.98711298023e-06
3.32259615271e-05
-3.07557620018e-06
6.31102500687e-06
0.0106796347804
-2.78539137585e-05
0.0106617913109
-1.42929779009e-06
3.72876449554e-05
4.37387667424e-05
-0.0106734790409
-5.58248781399e-05
0.0508387320326
-5.44256254654e-05
-3.71697324848e-05
-4.32941262262e-05
-5.2907728142e-05
0.000129215684225
0.000124785187087
-6.36229453873e-05
-5.83553464558e-05
-6.89141099127e-05
-6.84392612929e-05
-5.77876907008e-05
0.000204174842017
0.000193416515321
0.0508424614465
-0.000147788070194
-9.23178263579e-06
4.64799358904e-05
5.10784805441e-05
0.0106515579546
-5.71879302014e-05
-1.50068729692e-05
8.20304347793e-05
6.44067710717e-05
-0.0106172971055
0.010593668629
-6.6937374352e-05
1.57729233668e-05
2.01879167613e-05
1.7478260303e-05
-0.000260756840709
-0.000122480285263
6.30958864134e-06
-5.62853112918e-05
8.61221422557e-07
-9.16142414808e-06
-3.12424179393e-05
-5.82468979143e-06
-0.000241279286082
2.90982905553e-06
-9.95999223509e-06
3.75182168152e-06
-7.60519438681e-06
2.15392262367e-06
8.51259834775e-05
-0.000203795861569
-2.43945957552e-07
1.67403830789e-06
7.78247953102e-07
3.08093828536e-07
4.48893430733e-07
3.18398646902e-07
3.59752280754e-07
2.82507018146e-07
-5.57056571435e-05
9.82375061554e-06
1.29166567348e-05
1.24306947837e-05
5.03141396531e-05
2.98797475697e-06
-8.99190453619e-05
1.3931503293e-05
1.6223185254e-05
1.4470524143e-05
-2.94588734797e-05
3.97312001252e-06
-0.000168553796453
3.05082124933e-05
-0.012739808639
-0.000171180781825
1.5882173629e-05
-2.25530959947e-05
0.0127717610517
-1.70949417018e-05
0.0127390148781
0.000160167179928
0.0110687280082
-7.10613538824e-05
-4.42363243568e-05
0.000186360183973
0.0109638422513
-2.78547681232e-05
-6.36471667765e-05
0.0109900002306
0.0127714036074
1.26746197299e-05
-0.0126793205936
-2.74503322784e-05
-5.62956417824e-06
0.0126776530052
0.0126824911109
-1.17100198241e-05
2.3415792367e-05
3.355275132e-05
-1.32183897733e-06
6.6164988695e-06
0.0107317586864
1.31024353267e-05
0.0107187639512
1.10870839812e-05
2.37804358018e-05
0.0126840224694
-3.27402206428e-06
-1.16481022995e-06
0.0107056002692
-0.0126707878173
-3.70997945065e-05
1.90888629956e-05
0.0126673448234
-2.38326121131e-05
0.0126656754325
3.46888061983e-05
2.69119175498e-05
0.0106959773072
1.88876210676e-05
3.02177765988e-06
0.0106704848943
-3.69223979029e-05
0.0106842722887
0.0126603436165
2.81400509858e-05
0.0126643644154
-4.22097117076e-05
6.39159589655e-06
1.50914211176e-05
3.48139684372e-06
-0.0126530023708
0.0126565809947
7.4183803786e-06
5.50791152445e-05
-0.0106822942536
0.0106673456986
3.03877895922e-05
3.41500923728e-05
1.02009864746e-05
-4.90548140473e-05
0.0126686528241
2.15741195245e-05
1.68979400213e-05
1.59333712252e-05
-0.0126679414593
-7.34316384037e-05
-2.53559714053e-05
0.0126733072332
3.98125223838e-05
1.66449733318e-05
0.0126550372846
-4.74624817658e-06
5.79043991711e-05
0.0106560284879
4.02684193083e-05
5.43507532884e-05
6.91316596099e-05
0.0106352986544
-5.8171596799e-05
3.30543092573e-05
0.0106378870907
4.4071412729e-05
0.0126611861583
-1.44752015811e-05
0.0126797620149
-7.76899326589e-05
-3.56688855851e-05
4.89742364523e-05
4.55292684308e-05
-0.0126703020028
0.012673682182
-3.5547177261e-05
8.12487263909e-05
-0.0106181581544
5.75878817443e-05
0.0105912852454
6.25753807293e-05
7.82949524087e-05
-6.29359756706e-05
5.74100174454e-05
0.0126808526386
5.35007597184e-05
-2.37796860375e-05
-0.00069220416612
-0.0493674152876
0.0492954839
0.000872522036167
1.1816427084e-05
-1.15248200505e-05
5.98952642277e-07
-3.58883027343e-06
-0.000105390614687
-0.000869406230167
0.0498399803945
4.69377593109e-05
2.89517477981e-05
3.71872569345e-05
3.72360421265e-05
-6.92829014322e-05
-0.0497800439273
0.000728494428668
-0.00123983913641
-0.0499479026112
0.0500378096607
0.000969826946053
6.4506124641e-05
5.68600785952e-05
5.99803864307e-05
5.91379795754e-05
-6.03676957992e-05
-0.000734679418579
4.23906601973e-05
4.14861801181e-05
4.78693016856e-05
3.75007133387e-05
-2.7356917524e-05
0.050189140808
0.000530035609076
-0.0501263306578
-8.69564842631e-06
0.000140094289327
-0.000536790761589
0.000605618738485
-0.000154471006303
-2.50688633019e-07
-8.90516434361e-06
-2.88613648219e-05
-4.15665937792e-05
7.95613019331e-07
-0.000698589001039
0.000749130372218
-0.000218957050145
-1.6469766851e-07
1.56814093979e-06
-1.72656757556e-05
1.07457666736e-07
0.000186866341423
-4.58226651221e-05
8.00713159086e-05
0.000627790519905
-7.1180309586e-07
-5.21181439392e-05
-4.69536901643e-05
-6.12952233601e-05
-0.000496654652094
2.39535408626e-05
-7.76359934011e-05
9.64109928321e-05
-0.000796132821873
0.000964048937629
7.57650818524e-05
-5.78346080674e-07
-7.23088255151e-05
-6.73657269446e-05
-6.46487468995e-05
-4.48631466915e-05
-0.000200229768459
-5.18274139017e-05
-4.49548681713e-05
-4.91665921416e-05
0.000850590637082
0.000306175339921
-6.31110555431e-07
-0.000711545480909
1.70883061686e-07
3.49853089096e-09
7.39361019371e-09
6.49681407894e-08
1.30269496758e-08
1.94646180007e-07
4.0576322593e-09
-1.78172201939e-07
-2.59908672249e-07
-5.11583377402e-07
-1.0076792352e-06
-5.62612445151e-07
-1.05284966075e-06
4.45766120564e-07
-2.31860555764e-08
0
-1.21639717044e-28
0
0
2.9828754536e-09
4.75081041214e-09
-4.23515497478e-09
-5.16410533208e-08
-1.16788397158e-07
-3.50947305372e-07
2.14093299351e-07
9.64504555424e-08
3.91434807633e-07
0
0
3.74876273407e-09
2.90868737893e-09
-6.65745011301e-09
-6.1617097223e-28
0
1.06576574601e-07
1.05048040535e-07
7.04421057057e-08
9.19955588078e-08
3.33749727373e-07
-6.57859484211e-08
0.000260407999169
-2.0991857805e-05
-1.78489373731e-05
-1.24591932523e-05
-2.2568780691e-05
0.0490184145644
4.15478548444e-05
-2.45577058606e-05
-0.0492218226519
0.0490549456528
0.000487154337484
-1.464130998e-05
1.83984739411e-06
2.29422727421e-06
-1.21255314608e-05
1.60859132102e-05
-0.0492751076284
-1.98866321578e-06
3.11818231192e-05
-0.0115134462205
9.79060071234e-06
0.0114617873503
1.93885340571e-05
0.0114636861807
4.18069912383e-05
3.18900839379e-05
1.45712028201e-06
-4.10268779907e-05
-0.0115082115352
1.8489522816e-05
7.30893733712e-06
1.12805106718e-05
2.12115893069e-05
-0.000385421675446
0.0122642742776
0.0122141445341
0.0121694403203
0.0121595577155
-0.00011723655084
6.28395722941e-05
1.82739547067e-05
1.80236395584e-06
-5.57202640627e-05
0.0114356170732
0.000645660525681
-9.53369754053e-06
-7.66656187446e-06
-1.51925136841e-05
-5.99030896605e-06
-4.99173514314e-05
-0.0494376551933
0.0495643817815
-1.2965188667e-06
1.96858297942e-05
3.84158752534e-07
1.41778516457e-05
-5.06018928505e-05
-0.0495800096729
0.00067895456042
0.0115116930849
7.72342763164e-06
2.53423817089e-05
-0.011548181025
3.86459775422e-05
0.011580749483
3.99403287455e-05
-2.28061413388e-05
-2.37562935448e-05
-0.0116098092074
2.17002492284e-05
0.00112620998769
1.90822572976e-05
1.73273015201e-05
5.14596150997e-06
3.24972141875e-05
0.0491563028251
-0.000235828976559
-0.000200443818409
-0.000228314417867
-0.00018995498532
-6.6005141807e-05
-4.4778243682e-05
-5.35780777209e-05
-4.19593851846e-05
0.0495535397438
1.37652447256e-05
2.36771400684e-05
3.731848196e-06
3.31363459885e-05
-6.01561007956e-05
0.0496568487214
0.00105481326299
1.77722062981e-05
5.43284453071e-05
3.19170286131e-05
3.80222781004e-05
-0.000173769622991
2.77642177347e-05
0.0114798281328
5.95548406155e-05
0.0114330229061
-1.21417752871e-07
1.96487500877e-05
-0.0114398301086
0.000118009115861
-0.000122028412778
2.58700035869e-05
6.24176987021e-05
-2.96386603012e-05
-3.61395153267e-05
0.0115422551778
0.0114789405235
6.61929460053e-05
8.41850475116e-05
-7.12421169259e-05
-8.34374113578e-05
-0.0114936754744
0.0497989653589
2.92897141973e-05
4.79069415301e-05
2.27479377491e-05
5.31580861204e-05
-0.00135619125211
-0.00017877767973
0.00146211428052
2.81225842067e-05
4.50878810266e-05
4.84986208833e-05
2.22489821516e-05
0.05031662529
-0.000307742319092
-0.00181597745789
2.30121199594e-05
0.011429866612
0.000137252085765
-0.000145763283192
-5.05338063037e-06
2.68000246595e-05
-0.011433136584
0.000193935731263
0.0114473646545
-0.000213894508822
8.07829395924e-05
8.31163456215e-05
-7.03832540382e-05
-0.000102407579668
0.0114672155332
0.000122770142469
3.83358990363e-05
-3.44499991007e-05
-0.000148444388358
-0.0114923279903
0.0115093621566
0.000846749745658
5.27014826389e-05
6.09773103794e-05
4.47468269858e-05
6.35002431463e-05
-0.000121784100079
0.0500707259965
4.42712263468e-05
4.85102978596e-05
5.23687399073e-05
4.17558377592e-05
-9.81366187738e-05
-0.0499782483562
0.000665567226819
-4.70421472086e-05
0.0115498390174
4.22281086289e-05
-0.0115812680669
0.011489133714
7.63880100782e-05
-9.28075521777e-05
-0.011506619306
7.77069253174e-05
0.0115098997488
5.41536580865e-05
-7.12077783099e-05
-0.000117449127272
-0.0115255230917
0.000137550783371
0.0010868861106
5.94990624651e-05
4.89960140199e-05
5.24699595258e-05
6.01377122613e-05
0.0502819834425
-9.00714094284e-05
0.0501533383167
6.42574330276e-05
5.01098863119e-05
5.55464367662e-05
5.82210634958e-05
-7.56247984008e-05
6.36069061407e-05
6.21231920523e-05
5.92685298412e-05
6.50130504218e-05
0.0502857002073
0.000788001538688
-8.34974932245e-05
-9.8846988825e-05
0.0114754992218
9.0331892821e-05
4.86081514056e-05
-7.2343632507e-05
-0.011498314641
0.000117900249163
0.0115179925886
0.000147616370938
4.87303537911e-05
-7.7012397398e-05
-0.000128236564081
0.0115048303278
0.000170027686083
4.52272403009e-05
-9.39934779464e-05
-0.000149796989298
-0.0115094388206
0.0115257596924
-7.02742561671e-05
0.0115092763691
0.000165924527521
-0.011514416195
-8.37771248303e-05
-0.0115111240879
0.0115230307337
4.37235046386e-05
0.000187259492318
-8.83794871463e-05
2.83836023464e-06
1.14268089134e-07
1.11490382235e-06
0.000663019185359
5.21801135371e-05
-0.000659777924736
1.72263862991e-06
0.000652349843583
-0.000106699860587
-2.81653704607e-05
-1.79992501297e-05
-1.22802195071e-05
-0.00063204337519
1.04100773796e-06
-1.31475076419e-07
-1.55199444064e-05
-2.2645362224e-05
-1.93250326734e-05
0.000135779961083
0.000682527574878
3.55312677969e-06
-7.14870898808e-07
-6.5049626203e-07
3.8902856445e-07
-2.53857721213e-06
-3.03218375485e-07
4.01905069147e-06
-6.31514868507e-07
-7.38542118703e-08
3.41249582399e-06
-6.38296723141e-07
-2.62054969951e-06
4.01374688991e-06
-3.86621037946e-07
4.02051868455e-07
2.87640548568e-06
7.18889975054e-08
-1.79449422088e-07
-3.95593281519e-07
1.93648794161e-07
4.21112906986e-06
-3.51365660253e-07
-1.29739735887e-06
4.432035267e-06
-4.4478235349e-07
-1.36687980991e-07
-5.92761532047e-07
5.44241882383e-06
-9.06671866001e-08
-0.000139648573599
-7.03617813571e-06
-1.0966642367e-05
-7.12829456043e-06
7.07115583919e-07
-0.000505072856715
0.000481082108142
-1.40792638483e-05
-3.42182841516e-05
-1.41857259951e-05
-0.000410588621147
-6.01294357936e-07
-0.000106110505748
-0.000188251833035
-4.99801030193e-07
-3.50895385619e-08
-3.74914395661e-05
-3.76301191059e-05
0.000175269454627
0.000610641622051
-7.84583213181e-07
-2.99567123352e-05
-6.94085335784e-05
-4.12679506701e-05
-6.76682127391e-07
0.000786258921962
-6.97649331274e-05
-5.61581228092e-05
-6.50324641328e-05
-4.31346806805e-05
1.66296570155e-06
-2.21717446771e-07
-1.8286533154e-06
-1.2593429329e-07
1.94093488326e-06
6.76139995953e-07
-7.54669074528e-08
-8.90891677394e-07
6.67410089943e-07
-4.29310219519e-08
-0.000198344852103
1.01175199089e-07
3.23260756868e-06
4.14410018121e-06
3.01928534452e-06
0.000766807745899
0.000168715256175
0.00093213666906
-8.30246965399e-07
-3.99497304183e-05
-7.58842232278e-05
-4.04691318087e-05
-8.45314860155e-07
-0.000106904041013
8.70294715376e-07
-5.63292314026e-05
-1.75458492113e-05
0.000977640247483
2.67179537971e-06
-1.61959779889e-07
-2.69516850043e-07
4.27531687237e-06
8.90715255319e-07
-4.6793721036e-08
-4.59355000019e-08
1.20703999563e-06
7.23552591177e-05
-4.72289009075e-07
-5.43482002795e-05
-7.03610360785e-05
-5.58211609183e-05
-4.217451332e-07
0.000750585415343
-6.02343153537e-05
-4.23988497541e-05
-5.22860571453e-05
-0.000616180242971
0.000176564988497
4.58061864069e-07
-6.12641952714e-07
-3.93238104491e-08
-2.71596392229e-08
4.21089074737e-07
4.76361570205e-07
-5.27552930838e-07
-2.13233554442e-08
5.90743492121e-05
-6.47888106615e-07
-5.43254417777e-05
-4.76101106749e-05
-5.80379315747e-05
0.00106259070182
0.00092013912465
-5.27292503191e-07
-5.68767989283e-05
-5.65549495337e-05
-6.65432786999e-05
-5.78283885264e-07
-5.24390090803e-05
-5.04265013038e-05
-5.69015320402e-05
0.00104026488001
0.000202422652924
4.88416389095e-07
-2.44054253244e-08
-2.02954756995e-08
6.36371532913e-07
4.9233085737e-07
-2.60454854913e-08
6.41781188363e-07
-3.88250841199e-08
0.0123727287911
-2.95553766645e-05
-4.96494521793e-05
6.96690861255e-05
-0.0123841064355
5.46069101746e-05
-0.0123662785166
0.0123421601965
-1.70068590222e-05
8.53006581473e-06
4.7267089959e-05
1.07828188631e-05
-0.0115759494756
1.15897518024e-05
-0.0114936206869
3.55384308455e-05
0.0114400763247
8.08831879009e-05
0.0123456598421
2.58847903864e-05
-0.0115593868393
-1.5660738736e-05
-0.0123754393307
0.0123775166522
9.07903283793e-05
-2.0025194298e-05
-0.0123933238377
-0.000104968852379
-0.0123899981923
0.0123751082829
0.000123213919768
1.81441957681e-06
-0.0114997518843
0.0114458402088
1.57646064553e-05
-2.70131105811e-05
2.56989973743e-05
-0.0115621042649
0.0123574564491
0.000107111312811
-0.0124027506679
-0.0115586424785
-0.0123369142409
0.000140587691664
1.49707905466e-05
-0.000107551737485
0.0123076382866
-0.000117034126126
0.0123576286057
0.000143910676093
-2.27246268875e-06
0.0114170104534
-4.09560189055e-05
-1.63361546454e-05
-6.56586916278e-05
7.91803343965e-05
0.0114186656693
-8.7475297608e-05
0.000169056986415
0.0123344174953
-4.78213216605e-05
0.0114007388528
-0.000132373441745
0.0124309010193
-2.89902885277e-05
0.000155941192171
-0.0124348576913
-0.0124100526115
0.000152631761894
0.0123987701799
3.23921060703e-05
2.30344325985e-05
-0.0115990682355
2.38301135538e-05
-0.0115790652317
2.78346944333e-05
0.0115425812476
-0.0124178227136
0.000177414125462
0.0124242122267
1.90769264899e-05
-0.0116227447219
0.0124553204628
0.000171079594389
-1.3089473009e-05
-0.0124587188306
-0.000192401443006
-0.012476809005
0.0124750208808
0.000190960210883
9.92146149582e-06
-0.0116013756181
0.0115673776891
-1.46784677137e-05
-1.94604410838e-05
-0.0116437201918
2.00703694755e-05
0.0124506484361
-0.0124783405309
0.000171845431982
-0.0116411484229
-0.000207752813276
-0.0124153018182
3.65725856627e-06
0.0124038552429
0.000227755624957
0.0123824834083
0.000176962551662
2.07097447655e-05
7.76222142073e-05
0.0114541009265
1.74753871874e-05
0.0115036778921
4.46588748307e-05
0.0123654071274
0.000200214159545
0.0114735184781
6.24899957557e-05
-0.000239310376637
0.0123972644884
5.72820441808e-06
0.000259349252559
-0.0123513762494
0.000275384884935
0.0123449195473
-0.000231650296171
2.29097494788e-05
9.85518896081e-05
-0.000102857027134
-1.66577083018e-05
-0.0114526293356
0.000106124637135
0.0114396858304
-0.000196911297937
0.000296405218854
0.0123920711369
8.11834369921e-05
-0.0124461264734
0.000241751025323
5.86983275452e-06
0.0124401329369
-0.000216322568536
0.0124720565435
0.000213287856989
7.7967606156e-06
0.0115287216823
-4.10571914238e-05
-5.09560226736e-05
0.0115124846065
3.69703805637e-05
0.0124709194413
0.000235050884461
0.0114956935924
0.0124365043249
0.000269522725898
1.12553343417e-05
-0.000301286674532
-0.0124709824094
0.0124708496487
0.000284421649243
-2.94167643149e-05
-0.0114705781126
0.0114539366772
-4.84389712328e-05
-6.04084561363e-05
4.77316003652e-05
0.0124340425631
0.000259174895527
-0.00034701589924
-0.0123923003807
4.3689336564e-06
0.0124042994419
0.000368125001972
-3.72774194821e-05
0.012345024485
0.000312271703009
-1.5955910782e-05
-0.000273147762616
1.68153130616e-05
0.000156887516356
0.0114352331589
-0.000168790188201
-7.26646942052e-06
0.0114392548706
0.000126269006502
0.0123639869131
-3.09028447342e-05
-0.00031806944335
0.000332763183053
-2.79307974356e-05
0.0114551866961
0.00015015386795
-0.000377966464213
-1.63415614386e-05
0.0124597424167
0.00039953125021
-6.03186956656e-05
-0.0124329442268
0.000403825358426
0.0125222576241
-0.000392188696409
-7.39344284065e-05
2.79265051434e-05
0.000175755932865
-0.000192226060656
-0.0114575614406
2.04893138479e-05
0.000181454547426
0.0114669051433
-0.000356265200451
-6.26247619678e-05
0.000168564191356
0.000421500980161
0.0125326752885
-6.9906079916e-05
-0.0124352028429
0.000361854394193
2.34570827731e-05
0.0124472732692
-0.000332701331249
0.0124700383283
0.000310838347815
-2.15327417426e-05
0.0114537367143
-7.30678576771e-05
-0.000118496963103
0.0114745499258
9.51431595751e-05
0.0124767574966
0.000335021496682
0.0114646321202
0.00038611309693
8.67649738608e-06
0.0124800357282
-0.0124978537085
-0.000405844362841
0.000378202721993
0.0125361048292
-0.0114858311683
1.69100946751e-05
0.011505923843
-5.43079839817e-05
-0.000135932079716
0.000107621531083
0.000359108596476
0.012534777714
-0.000215233250586
-0.0125172002966
7.26857483626e-05
0.0125167412186
0.000189918840437
0.0124983155131
0.000198040869544
-0.0125010820112
-5.64741502973e-05
5.3139288111e-05
0.0115240977466
-6.05635117469e-05
0.0115581763863
-0.0115812798715
6.55957839886e-05
0.0124989725348
-0.0125190652986
0.000176601150454
0.0115327498206
7.36532873562e-05
-0.000234588411235
0.0125187514667
7.98272312557e-05
0.000205330123307
-0.0125011535337
0.000251166656252
0.0125024074563
-6.70738449139e-05
6.28962509135e-05
-9.47956385662e-05
-0.0115133675944
9.91575869146e-05
0.0114967076012
0.000217451159575
0.0125209471843
8.69761068501e-05
0.0125325633345
0.000178990448862
6.79501910816e-05
-0.0125299138432
-0.000189361828558
-0.0125424400658
0.0125453631457
0.000163803114901