/*--------------------------------*- C++ -*----------------------------------*\
| =========                 |                                                 |
| \\      /  F ield         | OpenFOAM: The Open Source CFD Toolbox           |
|  \\    /   O peration     | Version:  v1906                                 |
|   \\  /    A nd           | Web:      www.OpenFOAM.com                      |
|    \\/     M anipulation  |                                                 |
\*---------------------------------------------------------------------------*/
FoamFile
{
    version     2.0;
    format      ascii;
    class       volScalarField;
    location    "11.55";
    object      p;
}
// * * * * * * * * * * * * * * * * * * * * * * * * * * * * * * * * * * * * * //

dimensions      [1 -1 -2 0 0 0 0];


internalField   nonuniform List<scalar> 
28582
(
17098.0428747
17096.1770134
12199.7104131
12197.8069797
7300.59121326
7298.39867155
3626.08238707
3623.80473064
50.8251330871
53.6417970072
-27.0727323634
3624.56547362
648.717561423
648.888289985
3623.83531234
3623.35578316
650.155509482
1787.99398356
1787.53520637
17099.8992335
17095.1287197
17095.0672797
12202.0107489
12197.0112539
12197.0497082
7304.03038546
7297.86469412
3631.91769805
3624.19752307
54.1908580039
-27.1087481912
-27.0129220371
3628.86724753
3628.67560922
653.329412319
651.086531716
1792.59962449
3624.4181553
3623.8456224
3624.5471355
1788.5613747
654.452782715
1788.36425242
1789.90327538
51.8833779503
53.1658208339
-22.9033568198
-22.8503312624
52.8655085819
-22.8626150019
1788.17120748
1786.64424953
648.368074104
648.270680734
1788.02812787
647.889451947
1786.73972949
1786.11728831
1786.35707906
648.281986814
648.373960633
1786.1434467
647.762866396
1786.23343357
1786.84620437
1786.85588825
651.299662372
649.56394012
1786.46722663
650.754214772
1787.53009099
1788.60196484
653.078763156
652.869172832
1787.39610637
652.339083626
651.927218237
1788.12102785
1787.19267784
652.161849938
651.363015437
1786.78474989
650.064867849
1786.35987993
651.006268761
50.3620252965
-22.8400244574
49.9975331647
50.2417953747
-22.8971682656
-22.8606934075
54.3929597888
-22.9274008205
-22.8939208205
55.3038053796
-22.9566960497
54.8924296056
-22.9208554335
1795.29930376
1796.88588459
652.557194653
653.712359014
1795.2243351
1797.26558758
652.808626149
1793.21966573
1791.68128981
651.860037515
650.997713575
1793.44973919
1791.17507805
651.927243899
651.376813665
650.263458474
1790.30116196
1792.91896263
650.755891335
1790.71936881
651.76500563
1788.86009632
653.57740853
653.688737491
1788.8724551
653.8404915
1788.88200935
654.208699607
1788.99254142
1788.53376416
654.033471783
655.027530092
1788.72514911
1789.0212183
654.598229764
1789.16844933
1788.20917091
653.429361426
653.017908827
654.381725645
1788.99246031
654.35677064
655.506744825
656.220739858
1790.22553598
1789.43479128
655.641166093
1789.57932254
655.125883385
7297.73521976
3624.42755804
56.0898844957
-27.0384313894
3626.17815139
649.229046056
3624.98682665
3625.01348841
655.06256323
656.720519805
658.11418542
3624.73006359
3624.58264843
658.693628048
661.07755022
51.1332866465
56.3775919588
57.9992177096
-22.9234956467
-22.9470014631
-22.9559088895
59.5876008695
60.945246403
1787.33506376
1788.40884033
649.689495669
648.761307765
1788.83133193
649.161029756
1786.92466847
1788.77522811
1788.38430134
655.705301492
655.525924402
1788.22626838
1788.93865413
656.147861838
1789.29622102
1790.28975363
656.03245475
657.311924465
1789.51418162
656.607267797
1790.14676151
1789.04431972
1789.29867942
657.622927034
657.631134306
1788.7755248
657.074239876
1789.75215964
1788.59898994
1789.05661622
658.330285602
659.455097579
1788.6207438
659.114384102
1789.01780761
1788.71662593
1789.24843899
660.862645622
660.349320592
1788.93229716
660.036256393
1789.11860645
3633.80865222
3633.89812878
3640.9508042
3640.13619745
37.3496304475
46.9337067229
35.9155860131
44.0547243666
43.6098332654
-27.2331599076
-27.0871453105
-27.1560523558
-27.138838119
-27.1007892198
-27.0871669321
3629.23615592
3628.90064675
623.90007814
627.201261575
3634.3972602
632.645587948
3629.34796612
3630.01624727
628.224822798
630.378564839
3639.91749951
3633.85445675
3638.78259054
633.427682548
650.125986435
634.949874796
648.803977073
3642.5006299
3643.44647606
655.318325275
661.986471046
652.931807204
658.487307792
3638.12692144
3637.9644721
635.34973475
648.279061244
648.563967766
3641.86933446
3640.23041299
3641.00110562
652.129121219
657.544734658
651.587727226
655.831364094
651.787911284
655.603872545
31.7791891241
32.425426954
37.7370755006
-23.166102286
-23.021245713
-23.1434835542
-23.0192623195
-23.0248385696
-23.0185329933
-23.0741139977
-23.0179025424
32.1264567661
31.5321973401
42.4931757341
36.2889435144
41.0456286023
-23.1234610104
-23.0535311499
-23.1214806699
-23.0714037293
49.4704002605
45.2265455628
47.7070603023
-23.0979138557
-23.0226580513
-23.0980583988
-23.0442928113
40.2316967165
40.1977456921
-23.0923270824
-23.0663104857
-23.0665512472
46.3103326644
43.5690045981
45.4912857647
-23.0957291177
-23.0571874169
-23.0953805604
-23.0733871262
1782.26641092
1784.30657167
619.5468077
624.569516014
1784.10838034
620.822563019
1781.87392677
1782.53362324
1785.71178525
626.059377873
623.467528329
1784.73735738
1783.052869
622.177346352
1794.25069573
1789.69182613
631.745001117
638.402300427
1788.87638836
1794.58013408
637.731983723
1785.36100795
1786.80700001
624.357400671
629.063679939
1784.14952714
1788.11657893
625.145492085
1786.50477643
1790.24812987
629.652027615
626.640860689
1789.2105063
1787.66078165
625.811315629
1795.77416364
1790.59008031
638.912868574
633.98889919
1795.06437138
1791.64880713
639.276876179
1800.22758318
1804.5410737
644.641480212
649.92086536
1799.8561462
1804.5074751
644.763113621
1796.36704571
1793.44990679
634.404127043
639.522346613
1792.5450288
1797.05093401
639.31929627
1800.39798955
1804.23786676
649.161066979
644.270695071
1804.27407361
1800.72891164
644.330587186
1811.13000048
1808.58548459
659.413279966
654.78421948
1811.95268552
1808.16686339
658.613277074
1812.61067955
1813.25258711
662.177510282
660.928149217
1813.75942965
661.068237036
1812.14729999
1810.09953588
1807.06998121
653.674603899
656.020803874
1807.54683584
1809.25225863
657.12039411
1811.26528906
1809.66893494
659.558324686
658.112164618
1810.21135909
659.427007546
1810.7637265
1798.08519123
1794.11772368
639.659669613
635.979459369
1797.49822419
1794.90351384
640.008364894
1801.24642727
1804.05946332
644.111782103
648.160559985
1800.900166
1804.14541305
644.212107693
1801.60038045
1804.57479289
648.276416515
645.054943344
1804.26970065
1802.09766946
644.574892042
1808.00140314
1806.5505846
655.005443767
651.710712068
1808.47041468
1806.36332468
654.276183386
1808.64098841
1808.80391313
656.90962821
656.860478674
1809.29956885
656.075968958
1808.19645104
1807.66443034
1806.36577273
651.546141899
653.613103487
1806.26421888
1807.53553964
653.827070235
1808.18958686
1807.52839058
656.18264444
655.002237907
1807.88468246
655.374816147
1807.76861858
1807.34148913
1806.5061704
653.60151916
652.080700247
1807.42843794
1806.68051332
653.721204081
1807.35090751
654.863252581
1807.64939933
17097.5002892
17095.6891625
17094.8889767
17095.7045339
17096.7818141
17107.291393
12199.3317351
12197.5973609
12196.9551195
12197.3237475
12197.9133603
12208.886545
18314.742978
18318.1776449
17089.8958052
17093.8582101
17097.3020228
17100.4537368
17106.2653058
17085.5984829
18316.5487725
18318.5653834
17094.7864957
17095.3003935
17095.5727506
17095.2433038
17094.5633667
17106.5724546
17096.580509
17094.8937138
17094.4768429
17094.7455742
17095.2039848
17095.3599784
17095.5403831
17108.3517112
17098.8814472
17096.5428241
17095.2427593
17095.0562695
17095.3370163
17095.4048083
17095.6802017
17108.7583996
17094.9210009
17095.3751094
17096.2915741
17108.1807379
13415.3686026
13418.4326725
12195.4416745
12196.9453147
12200.1484632
12206.25443
12256.1643752
12108.2528714
13418.8216356
13420.6811035
12199.5488661
12199.5463392
12198.3384972
12196.2069826
12192.3161997
12190.5804008
12198.2526763
12197.7225306
12197.760715
12197.4772019
12197.0871662
12196.2095044
12195.0753195
12205.4637444
12201.0253047
12198.7220033
12197.6643843
12197.5363916
12197.4836251
12196.5442226
12195.2774854
12208.0707999
12196.8672411
12196.7133641
12196.8564817
12209.2606633
8517.16869267
8520.70778546
7298.77875283
7297.80341962
7297.38416195
7297.73416854
7300.78253559
7227.86678258
8521.21900737
8524.21800568
7297.71298159
7297.86349115
7296.93136655
7292.69655801
7280.13534006
7268.20762007
7301.09609494
7299.91241935
7299.13838095
7298.62621868
7297.43086621
7294.47465381
7286.93773683
7301.8814087
7307.20545523
7303.26578873
7300.39693593
7298.93552488
7298.49777169
7297.49196699
7295.13903065
7290.33631491
7304.85831645
7300.58772722
7298.54305716
7297.75219644
7297.04842846
7295.80436538
7293.79186902
7307.94685719
7297.05415411
7295.89431091
7308.51022153
3625.20376209
3628.8184402
3628.26026274
3623.31042577
3621.34411907
3625.36979756
3627.42914452
3598.30502899
3627.79871347
3626.84391092
3628.72434276
3627.72923256
3624.65238401
3624.29185741
3624.31632673
3620.12584646
3605.77883375
3640.43380027
3634.20750292
3629.49796118
3628.04837324
3627.78659649
3626.35878371
3625.84190313
3624.67208938
3620.42414431
3619.07489138
3636.10266415
3631.166715
3627.54281943
3626.69131585
3626.77191862
3626.42993967
3623.95023643
3621.05686524
3623.28183527
3626.58946164
3625.30847892
3625.33052957
3624.55103807
3623.33526531
3622.19210332
3625.13000813
3624.01862092
3624.10157477
3626.6764758
41.5559489495
44.9463439298
50.6676871011
55.8504786845
60.4216300328
64.2414989235
64.3741298711
64.9423697773
47.2366947516
43.2756703401
43.3811876884
45.8542740695
49.1258630212
52.9431649921
55.5997335342
58.4703694373
60.5922299515
61.6943029269
46.6873720376
45.5228566592
46.1032719735
46.871570212
48.4096149335
50.5902643546
52.9320089145
55.2008868267
57.318998053
59.612231906
47.2981800247
48.7466453475
48.7269242535
49.678379079
50.5833898084
52.0570834658
55.1225782474
57.362974919
59.6527712409
50.8684658652
51.8113794463
52.7612263859
54.2627018338
57.4368946708
60.1120023661
61.6512994768
59.3768301733
61.9708037685
62.5729668604
-27.036983076
-27.1393932518
-27.1323406934
-27.1488051578
-27.3095396533
-27.1925271844
-27.0877725048
-27.0964612463
-27.1995608858
-27.6015590465
-27.1724569837
-27.1533303694
-27.1348110815
-27.2002082568
-27.1013573863
-27.3372311948
-26.9925024952
-27.1397761449
-27.197595819
-27.5350319852
-27.2495994959
-27.0823552376
-27.1389110599
-27.1203401199
-27.1173484599
-27.11818615
-27.1856099078
-27.1102701352
-27.2395849885
-27.5698450355
-27.0841597418
-27.1252495887
-27.0823310216
-27.0638916925
-27.0610885222
-27.0581457967
-27.1193760718
-27.2440125302
-27.6197049834
-27.0630590059
-26.9649790863
-27.2615156917
-27.0826753437
-27.1175399751
-27.2402296171
-27.6252516625
-27.0797155882
-27.2296346423
-27.6695382883
18316.7098534
18315.1036165
18316.9790608
15865.1911687
15867.3796036
15865.8585883
15867.5423108
18318.7928562
18318.5568844
18319.3921766
15869.0142951
15865.5724665
15868.7176992
15867.7724358
18317.4508365
18318.5892032
18318.4109294
15867.4465515
15868.671446
15869.3365033
15869.6786089
18319.2512064
18318.8445042
18319.5049908
15869.7006259
15869.6775508
15870.5280465
15871.3785128
13417.2292687
13416.5918746
13418.075262
10965.6133135
10967.7584914
10967.125235
10969.0238519
13418.8509644
13418.8306053
13419.8248345
10968.9782286
10969.4354897
10969.9316043
10969.7471997
13419.8961825
13420.3095857
13420.9445105
10969.7319489
10971.2471025
10971.4759266
10971.9009694
13420.7555302
13421.6898123
13425.0668529
10972.0539744
10968.5005782
10972.0951898
10974.9276286
8519.50128095
8518.93368036
8520.82814236
6070.45863862
6072.62155211
6072.10566001
6073.6209998
8521.10469286
8521.98325398
8522.4678151
6073.95497447
6074.57335292
6074.56458488
6076.42648869
8522.97432698
8522.90266079
8523.47798654
6073.66036271
6074.96684121
6074.9130727
6075.40020552
8520.44908161
8523.6305881
8525.60232237
6075.93571111
6075.26117595
6075.82164078
6077.44428229
3623.05486676
3624.89574675
639.486557278
642.818913475
3627.36969247
3626.32060475
3627.78133156
641.261931893
647.15450281
643.575712662
647.717677132
3629.07276792
3628.75793733
3628.73450132
649.082103869
653.626638082
649.184559077
652.250998939
3625.96939277
3627.57788337
3625.45457935
654.897442356
653.645853478
652.58501791
650.892568645
3621.46401438
3623.50983801
3622.53478564
652.220515047
650.188220953
650.345553112
652.402706896
3622.95508973
3622.70392764
3623.61922886
651.341776077
660.477296925
653.951870114
658.703018992
3627.5965858
3624.86335117
3626.13105822
663.067854513
667.58126656
660.458257569
663.257532388
3617.59147178
3625.69972528
3617.2824194
667.990869418
665.623111346
663.057323944
658.770669511
3584.12340613
3601.58255276
3607.01672339
667.368185954
590.239767469
657.967475995
632.197321553
3640.72703945
3635.66104502
658.966256227
648.777640791
657.225170221
652.252564235
3626.3231167
3631.56124337
3629.03324933
646.537443776
644.053350777
651.013976732
647.767424613
3627.93175633
3627.9542917
3628.12140071
644.442720463
647.638651422
647.154244846
647.689015178
3628.64719171
3628.47737012
3628.74166497
648.980975922
651.873917969
648.426774034
650.306756532
3626.06128672
3628.85548705
3627.66748823
652.158812778
650.509908955
650.645942529
650.572792953
3624.19914439
3626.28290236
3625.68047165
649.996592877
653.057060587
650.71929443
653.156417821
3624.44760759
3625.63990174
3625.54742056
654.574067232
657.957051318
654.394395515
656.957626154
3623.34395288
3624.81499142
3622.83364128
659.40046214
661.602181541
657.762706996
657.364294875
3614.13565424
3620.03461612
3616.37250702
661.355081578
657.30196863
656.563220326
654.966283334
3623.8147295
3612.84952157
3633.62557427
656.872149021
634.002809317
655.837088972
634.665957546
3637.45826418
3640.30929421
3638.13750758
656.908921351
652.891715604
655.924265498
654.087889062
3631.52266535
3635.26747053
3632.67745947
652.104293738
648.757285411
653.635289986
650.831717687
3628.36128247
3630.46058615
3628.64843
647.793548189
647.97542968
650.068834468
649.350422667
3628.01468126
3627.75676372
3627.37194952
648.462705899
649.856250006
649.404811975
649.921325312
3627.16431783
3627.18834742
3627.1209829
650.187891037
650.653588974
650.002424584
650.845573538
3625.90778146
3626.89290386
3626.74325039
650.858746559
652.408339346
651.108082266
652.128798426
3625.787279
3626.64896789
3626.05003299
653.61068696
657.12099234
653.133655055
655.70953395
3622.55334577
3624.59010129
3622.53341542
657.378548181
655.893540626
655.101929827
653.702189944
3618.83087057
3620.71322157
3620.1938045
655.403301546
655.154364163
653.939014287
655.563563177
3635.77994977
3621.58852884
3637.0506917
656.502727469
633.752449275
657.335881939
633.166464802
655.775726867
654.415050663
3633.53047908
3634.21962523
653.983155345
651.530578629
653.614746022
3629.00332859
3631.61933811
3629.03773151
650.879891742
649.98230348
652.853528475
651.109704253
3626.86703667
3627.11355467
3626.22235874
649.845156484
649.855633286
650.465596336
649.767376505
3626.81600933
3625.96763884
3626.13126973
650.017832962
651.143689927
650.417898618
652.638061445
3626.70742715
3626.11823722
3625.86608466
651.417338863
652.719002641
652.882137218
652.936657073
3625.45853331
3625.42860802
3624.58659163
653.622988448
654.595509976
653.095979169
654.464456652
3622.27361412
3623.55852959
3622.30769132
654.268121891
654.06329
654.890356886
656.009322187
3621.27611189
3621.59412599
3622.12501933
654.332742197
655.762845626
656.260376634
657.560768534
3637.45047057
3624.24120812
3637.73873229
657.628295844
633.441163785
659.157855562
635.174260419
3625.55219803
3624.9553389
650.249006964
649.742490873
649.295003482
3625.43696316
3624.50718399
3624.60093991
650.539424569
652.828949914
650.447451244
652.90090436
3624.98507584
3624.57066342
3624.43684501
652.877804337
652.922680474
653.167346591
653.870342997
3623.97429655
3624.1991888
3623.86646904
653.21941114
655.163035505
654.476795608
656.626068748
3622.5635579
3623.40647204
3622.96790972
655.622263478
656.7392116
657.224365772
659.113141286
3622.87916546
3622.92125098
3623.70077606
657.130368416
658.68311899
659.943893316
661.359882718
3637.87867853
3625.73265156
3637.63280716
660.265852782
635.82367037
662.440454309
637.201435609
3624.2946025
656.933375917
3623.8568408
657.501659134
659.770990458
3624.88223169
660.596506141
661.628241328
3637.55268351
662.42324241
637.475279816
-23.0541482622
-23.0957821195
-23.0175072631
-23.064521169
40.0002184233
41.587413866
-23.0792533285
-23.0776737351
-23.0602746331
-23.0630033365
43.2137099914
42.4383434839
43.7917524364
-23.0527259518
-22.9947036101
-23.0499752333
-23.0022662191
47.3946023039
45.4085272542
47.4482193176
-22.9747026311
-22.9284561659
-22.9857644296
-22.9451628
53.3686818393
50.0267348456
52.2572471256
-22.8467177762
-22.8516578879
-22.8627936531
-22.8377798207
58.1288193336
54.3813825826
56.2527414722
-22.7865258831
-22.7824649592
-22.7883004933
-22.8319019838
63.2015096178
58.2174338562
60.1556524383
-22.7697607802
-22.7840251033
-22.8618192953
-22.859031158
64.6027552213
61.4856069799
62.2807449563
-22.8225280909
-22.8311778455
-22.885276981
-22.8925531098
64.6601516513
62.5874287071
63.6052828656
-22.8554013677
-22.923337697
-22.9202665134
-22.9691071887
69.737970906
62.7783589104
68.9709058627
-23.0309253272
-22.9081664662
-23.0450558127
-22.9037107597
44.6582925475
47.0502695015
45.700057973
-23.0145438017
-23.0450607178
-23.0592656508
-23.0538821874
43.1274110754
44.7438534889
44.4315372424
-23.0471345647
-23.0624583671
-23.058351419
-23.0926828586
44.4454853259
44.398039463
44.9846260994
-23.0413890369
-23.0098983835
-23.0489603234
-23.0196644793
47.1808788427
46.1557781249
47.2260351245
-22.9958585242
-22.9710501297
-23.0059407033
-22.977646666
51.1202080271
48.6111488263
50.0977754338
-22.9016015533
-22.8220386332
-22.9220385366
-22.8682880594
54.2829448232
51.6259492382
52.9385098014
-22.8507518505
-22.9411540047
-22.88643037
-22.9202559977
57.0823087671
53.9144272804
54.9915000348
-22.9196720374
-22.9448393182
-22.9171229394
-22.9641669226
59.6333335486
56.0660882135
57.5772620989
-22.9467524509
-22.949730542
-22.9719347696
-22.9817974042
62.1893892335
58.7203016599
60.090751896
-22.9785940532
-23.010361897
-23.0091086041
-23.0274431873
68.234603895
60.4438336469
66.7182888175
-23.0632035418
-22.9322594436
-23.0772507132
-22.9639677111
45.8792507901
46.3843280636
46.2075744328
-23.0783069523
-23.0644535048
-23.0899996859
-23.0522873483
45.9349451857
46.3837364743
47.1816587555
-23.0458217918
-23.0590450673
-23.0270200504
-23.0330047315
46.3117861414
47.5589849058
47.4791094532
-23.0258131803
-23.0010894036
-23.0006109412
-22.9824802567
47.5516458429
47.63528295
48.1828985399
-22.9899499294
-22.9702046035
-22.9772700858
-22.9610178977
49.5042338159
48.7545164815
49.4912382519
-22.9347451084
-22.9032111753
-22.9360585784
-22.9162043252
51.5078413824
50.2132856505
50.7073389823
-22.9034305714
-22.8652651228
-22.9186759448
-22.8961902725
54.0862694737
52.0926175693
53.6302869434
-22.8851158333
-22.981188349
-22.899630502
-22.954848064
56.3617951874
54.8199840623
55.8850277948
-22.9642142188
-23.0055915844
-22.9632476764
-23.0119634301
58.7111192806
56.9217926288
58.208204596
-23.0310511162
-23.033108527
-23.0361497681
-23.035067536
65.2757096822
59.3008994153
64.6315245623
-23.0867350861
-22.9889940651
-23.0891225711
-23.0053123124
48.3939380654
49.1181268038
-22.9815090702
-22.9832530768
-22.9508611581
48.602373332
49.5579839126
49.5943860356
-22.9537252945
-22.9322879023
-22.9170156853
-22.8894572994
49.2587485755
49.882815815
50.4429866224
-22.9203952089
-22.9065335451
-22.8754974354
-22.8783261884
50.0984488186
50.8073033905
51.1393539674
-22.8936611835
-22.8823359235
-22.8727351702
-22.8476057997
50.956829728
51.6319614179
52.0568195876
-22.8890830852
-22.8794582896
-22.8523271253
-22.8441072314
53.7841833555
53.1020038702
54.842289209
-22.8773281946
-22.9146042224
-22.8689168452
-22.9097296671
56.2698475948
56.1355139249
57.4785848128
-22.9556410831
-23.0012571742
-22.9441085264
-22.990215081
58.6805108056
58.5176648395
59.953029796
-23.0277032949
-23.034699951
-23.0229350232
-23.0307728579
64.7965412058
60.5051647624
65.5184318472
-23.092385642
-23.0191102367
-23.0913719854
-23.0162221305
51.4135051445
52.0404925521
-22.8331957423
-22.8502911861
-22.8012955411
-22.8227242822
52.2777811563
52.744814854
53.0544077484
-22.8466090736
-22.772041536
-22.8326388782
-22.7644248027
53.2485765304
53.5493124119
54.2677431068
-22.852642901
-22.8984614681
-22.8828525188
-22.930759611
55.8554731923
55.5322298796
57.1129847903
-22.8960903623
-22.9181284922
-22.9176790136
-22.9325826325
59.0365419122
58.8170362898
60.4530927185
-22.927525151
-22.9628896588
-22.9221855605
-22.9518528513
61.6832337939
61.4756238156
63.0797510606
-22.9951361049
-23.0119841243
-22.9829546841
-22.9999055421
66.1101665979
62.5620862156
66.6288201299
-23.08234298
-23.0008299559
-23.0743118234
-22.9893796469
57.6830013244
-22.9332692386
61.0095541035
-22.9242550038
-22.9532992025
-22.9457884739
-22.9696233854
63.554440055
-22.9823896064
-22.9986387999
-22.9944244898
-23.0059409061
66.634014815
-23.0730641313
-22.976259513
-23.0689863033
-22.9663975437
1788.47295329
1788.46265148
638.236925403
640.422317427
1788.92810068
639.249190052
1787.91365004
1789.26309361
1790.60715165
641.639569951
642.340188001
1789.66576817
1790.42122436
640.746810962
1791.75407474
1789.86375491
643.295584493
641.972187706
1790.18483239
643.770425729
1791.61300659
1793.27483551
1794.76570044
645.26178567
647.386112693
1794.66035547
645.595161439
1793.29757866
1792.03711218
1791.39769995
642.773010458
644.791839779
1790.68895477
1792.47438403
644.329171281
1793.38368506
1794.63279183
647.591730849
646.20904384
1794.6401271
1793.57964244
645.95621884
1796.19124377
1795.85116682
650.622327949
649.108817665
1795.67997683
650.487355815
1796.5201923
1796.22676228
1796.39413797
652.253468936
653.19100432
1795.66391195
651.997986363
1796.71041017
1796.03906126
1795.46720341
649.142782857
650.354076206
1795.58006613
1795.83892178
650.405131412
1796.00463212
1795.01495207
652.622629686
651.481602088
1795.42106707
1795.67626991
651.710840438
1793.2502853
1795.51689328
655.096830427
654.151634801
1794.57979794
654.165685029
1794.14634508
1790.96388467
1788.48855393
654.535395002
652.556183484
1788.21291619
653.440722956
1791.61990528
1792.57954566
1793.79144049
653.18220883
652.250704994
1794.21262838
1792.14530075
653.043591317
1790.58469333
1788.49690276
651.640162537
651.45590632
1788.378344
1790.30836729
652.268535115
1782.88378216
1785.23556946
651.229421177
651.458583523
1785.46904511
650.726743625
1782.01959005
1781.39678065
1779.33017846
650.190628502
650.682303964
1781.20945554
650.219924341
1779.83732808
1784.49961989
1786.98326478
650.907051859
650.451330039
1786.3622403
1786.10543243
650.666722262
1783.68694178
1785.88355973
651.545655848
651.067021611
1783.75335845
1785.78246109
650.653407257
1782.43579674
1780.12223616
654.148169383
652.147888588
1781.72611666
654.639436981
1780.78535461
1784.18790997
1785.65857874
657.514998027
660.031124482
1786.43319905
657.482926459
1782.93460806
1784.476201
1786.02811769
653.309400131
655.545055066
1784.06053353
1786.41268954
655.372975651
1785.70356632
1788.3666438
659.370252798
657.11779604
1787.3357789
1787.25809142
657.41430853
1790.93189729
1788.3854586
665.051355352
662.408377401
1788.71831491
664.223709798
1791.04925583
1792.43167051
1794.63788251
666.593988912
666.269845893
1793.21669479
665.603885232
1793.11880824
1790.68116099
1789.60696718
661.325165707
661.778144624
1789.06703916
1790.63925884
662.874288572
1791.70287022
1790.76953624
664.710023578
662.814718616
1791.99846613
1791.03344368
664.127275713
1791.74400044
1795.29841692
667.625107419
666.340186495
1793.00200711
665.667483995
1794.77635131
1789.08333631
1787.72459732
666.640976794
662.718445506
1784.41970103
664.308173176
1792.56097765
1789.51839388
1789.62257313
664.620085691
662.187318376
1791.31992477
1787.35948422
663.869976226
1786.4020318
1779.82827056
660.719755267
660.584404666
1781.81035108
1784.04265686
662.416767375
1770.83370619
1780.52335889
683.55812182
662.313192246
1777.89599992
668.898343483
1771.81541735
1760.27862103
1756.47662761
737.273536558
626.5084207
681.508555119
1770.11225058
1758.74421075
1770.6839926
1775.40558286
660.352026898
663.527360675
1776.21459866
1771.368918
667.205567106
1762.12877725
1783.02744943
629.455576849
672.957863273
1763.76994053
679.338534887
1776.13973016
1806.37133322
1810.58670956
655.417094067
658.428708172
1806.49951708
655.578181556
1809.79508229
1802.51755161
1797.83121507
651.894012627
650.118473348
1801.88438081
1799.04029824
652.70360455
1805.98585401
1808.00612416
657.727338386
655.607337391
1805.81342931
655.564023419
1808.70412109
1802.99232321
1800.88970024
651.274152291
653.871613847
1800.08763901
1803.37076056
653.368571918
1794.42306291
1794.91827733
644.808685545
648.106967723
1792.90255013
1796.41955615
646.539778951
1793.04356777
1791.47617622
644.009554681
645.160086359
1791.73704164
1792.38622199
645.561909324
1795.82472079
1798.78594086
649.648590188
649.783342425
1797.75480673
1796.88747855
648.253550075
1794.32581762
1794.01437402
646.663694572
648.733441713
1793.34325989
1795.2647429
647.279751783
1792.64650627
1791.82869097
645.268806066
645.185246133
1792.53902718
1792.30432579
645.704060544
1793.23886644
1794.41971148
646.361691686
647.636566988
1793.42023421
1794.07807501
646.518033929
1792.85140429
1793.20607238
646.370723526
646.927436209
1792.8567152
1793.01247952
646.380672203
1793.11343318
1793.29319844
647.579910632
647.143636677
1793.66931811
1792.97289743
646.761223329
1795.15434039
1795.21173652
650.061534278
648.887761166
1795.55568064
1794.8070863
649.891332688
1794.93503164
1794.59605689
651.113926343
651.484629648
1795.36780233
1794.24348477
650.802497471
1794.46880596
1793.59525648
648.573883153
649.130530804
1794.19391598
1793.710575
649.434092315
1794.34150086
1793.34980001
650.828224357
649.78096396
1793.82091763
1793.6910019
650.223239666
1792.02812305
1793.44788924
651.730033803
651.719232128
1792.05651087
1793.2191865
651.389122098
1790.70747454
1788.93915561
651.076789694
650.320966159
1790.42904622
1789.56700306
650.826787791
1792.05300822
1792.84191145
651.104349146
650.803186758
1793.04583512
1792.21068662
651.132129507
1791.21682472
1790.85618224
650.474190166
650.732387863
1790.39149106
1791.52405059
650.807930569
1788.65389633
1788.01443196
650.593960624
650.118203993
1787.58799395
1788.9201586
650.845219586
1788.72182633
1787.62316268
651.613777167
653.251180516
1787.45561191
1788.96293429
651.924717196
1789.64181225
1790.40979701
650.400534417
651.198780944
1789.87075329
1790.16145305
651.056364289
1789.77063604
1790.7983798
653.367264396
652.037152307
1790.15104109
1790.30349182
652.134089435
1789.52885451
1787.85273428
655.765029933
654.621696043
1788.16424848
1789.26130404
655.610860051
1789.79248613
1789.17326677
656.769752771
657.434836939
1788.59247296
1790.0936387
656.441018391
1790.69365191
1791.30693065
654.585711568
655.26828633
1790.47899534
1791.66500189
655.429023049
1790.82928414
1791.56590338
657.077467633
656.057956117
1790.84859605
1791.7726767
656.076654868
1790.39155055
1789.87486426
660.547391458
658.74048336
1790.435212
1790.29698244
659.635872838
1789.95222442
1789.57184565
661.386441228
660.199580633
1790.36595488
1788.76083178
660.122382454
1790.44558302
1791.1554104
658.231141445
658.014600332
1790.62351387
1790.63572998
658.83203561
1789.59791542
1787.46976234
658.69684079
657.948732136
1788.0076193
1789.32724302
659.004196629
1783.95479802
1787.83855371
660.488733162
659.837958653
1785.13483973
1786.74194078
659.02132903
1780.76104058
1778.19043336
658.937828368
656.017182413
1781.71630729
1777.8690345
657.383836698
1783.27315121
1785.33677193
658.07534451
655.826751715
1785.87067507
1783.06090268
657.176484514
1780.68428722
1779.17405219
655.322339507
655.089013852
1778.48121285
1781.00368062
655.974660554
1773.25061038
1775.09735725
663.17660553
655.754114347
1772.33098904
1775.542959
661.717602162
1767.40599534
1788.61255715
673.514198665
635.521949397
1766.45447273
671.222222838
1791.17975079
1774.47289719
1777.24707479
655.885970994
661.801747964
1776.6862087
1774.54061009
662.158973089
1767.92315721
1790.64531124
635.409176713
670.034973858
1767.19869511
671.184315732
1791.40696144
1805.78783901
1807.48709919
655.703102783
656.517472739
1805.67693807
655.572177519
1807.13402507
1804.1282838
1801.47788916
654.214069859
653.281091473
1803.65051346
1802.18905614
654.332886381
1805.99207674
1806.78618802
656.188862674
655.35712457
1806.13463565
655.495984916
1806.88569611
1804.57802888
1803.3088529
653.724260591
654.610118332
1802.86745687
1804.89826785
654.502108953
1798.81381741
1799.58972394
651.078247032
652.550725139
1797.77444026
1800.52411561
651.694473175
1796.94877923
1794.68584288
649.96326582
649.473074507
1796.00877908
1795.2661994
650.698370194
1799.3955082
1801.68447141
653.175161189
652.820792076
1801.23110857
1799.79543394
652.300947813
1797.41954049
1795.94581056
650.146047154
651.74682783
1795.6134213
1797.79049617
651.226586854
1793.22838857
1793.71102418
647.465855904
648.536942932
1793.12071278
1794.05127207
648.108493588
1792.79298076
1792.933518
647.567579073
648.299260319
1792.85427045
1792.71741523
648.059773936
1793.45580245
1794.6762017
649.268519793
649.541794658
1794.34739702
1793.78590071
648.797597917
1792.93306324
1792.79952064
648.770630308
649.363113487
1792.74341013
1793.17751115
648.657223304
1792.74342519
1793.10716698
648.994591417
648.682799959
1793.16807675
1792.77430666
649.051663079
1792.6604348
1792.93539115
649.457119685
649.730733728
1793.15031021
1792.51496098
649.39697385
1792.48512803
1792.49244525
649.030672849