/*--------------------------------*- C++ -*----------------------------------*\
| =========                 |                                                 |
| \\      /  F ield         | OpenFOAM: The Open Source CFD Toolbox           |
|  \\    /   O peration     | Version:  v1906                                 |
|   \\  /    A nd           | Web:      www.OpenFOAM.com                      |
|    \\/     M anipulation  |                                                 |
\*---------------------------------------------------------------------------*/
FoamFile
{
    version     2.0;
    format      ascii;
    class       surfaceScalarField;
    location    "11.55";
    object      phi;
}
// * * * * * * * * * * * * * * * * * * * * * * * * * * * * * * * * * * * * * //

dimensions      [0 3 -1 0 0 0 0];
oriented        oriented;


internalField   nonuniform List<scalar> 
92311
(
0.204110447506
-0.0002079755634
-0.00107577188953
-0.203754450853
0.000927750094906
-0.000139551015423
0.204275109607
-0.000852303653815
0.000827281451924
0.204246261896
-0.000419364153877
-0.00114887803833
-0.203884546327
0.000998669484261
-0.000147378019282
0.204315430975
-0.000877178271993
0.000815930484489
0.204508414982
-0.000281342989452
-0.000162247593711
-0.00117972846455
-0.203899716217
0.00101246380943
-0.000256172640328
-0.000161024201114
-2.91621970838e-05
-2.38644105581e-05
3.04570863542e-05
0.204457952136
-0.000961976415282
0.000897354030037
-9.76941065034e-06
0.0513378705395
-9.12655202866e-05
-7.90747426371e-05
-8.84312524564e-05
-8.30791075983e-05
-0.000313065895637
-0.0512588970568
0.000294535308981
-0.0513934984966
0.0514191936576
6.90272034386e-06
-2.91048994482e-05
-1.73043876018e-05
-1.21436631233e-05
-0.000331381314017
0.000328142682066
0.000105773439
-0.0111549710717
8.18267893335e-05
9.28495020827e-05
6.97683704037e-05
0.00154962631777
0.00659941464218
0.00222642104846
0.000429379562762
-0.0209564276689
-0.00193370716609
-0.00109798592431
0.0196829780141
-3.26720403843e-06
-3.85964526675e-05
-1.32938520053e-05
-4.18527603381e-05
0.00440219419549
-0.0226188789054
0.0110136361979
0.00750160279598
0.00776853445895
-0.0316150354219
0.0467884971409
0.0681225935415
0.00871946771621
-5.8121641123e-05
-4.27139082815e-05
-3.63322778871e-05
-6.33519667118e-05
-0.000336149194968
0.000318637183586
0.000112434117968
0.0118517878312
-4.92186058205e-05
5.77458501153e-05
-0.0118670178648
0.01175803254
-4.2558374482e-06
4.03882863858e-05
-0.0117944492906
-0.000116998743295
0.000117368045333
0.000331939868979
1.28208766857e-05
0.0513800282531
-8.20081679798e-06
1.1314215703e-05
-7.25319603102e-06
-0.000325424354587
4.18526060812e-05
0.0513534715308
5.51986568605e-05
3.42336062406e-05
3.74414619305e-05
-0.051420816814
0.000261024158845
1.592266381e-05
2.5171931058e-05
0.0117162189104
-0.000126519298619
0.000127170444907
0.000107058320384
0.0128320513911
-0.000118368711369
3.28319975151e-05
-0.0128407510217
0.0128314801537
9.34133452961e-05
7.21510878897e-05
-0.0128481739768
-0.000254383481539
0.204118897746
-0.0017453503952
0.00151103337129
-0.203630197208
0.204296733089
-2.13635448536e-05
-0.000455777602371
0.000455890261151
-1.61386393546e-05
0.204358026327
-0.000345346245488
0.000300438801361
-0.000546157562799
0.204169700973
-0.00162638708514
0.00145492149843
-0.203706437849
0.204425502078
-4.52932836703e-05
-0.000622876178501
0.000537013697128
-3.46355469857e-05
0.204570804367
-0.000455716905181
0.000329153078369
-0.000216561939253
-0.000316684361041
-0.000335687038383
-0.00154292790663
0.204105575277
0.00142352591786
-0.203438165416
-0.00022530516788
-5.24129507795e-05
-8.12404847397e-05
1.14238069026e-05
-1.94901113267e-05
0.204625993581
-0.000598909602154
0.000527397172171
0.0511822370222
-8.66326528525e-05
-7.46180319745e-05
-8.61365800418e-05
-7.4149232497e-05
-0.000404168313745
-0.0510479462007
0.000374874226219
0.0513493177029
0.000335517076344
4.27984279576e-06
-1.9040166452e-05
-6.65332017247e-06
-2.97121068771e-05
-0.000306138193671
-0.00475812833202
0.000141248885023
-0.021107398965
2.29098729098e-05
-5.50332144647e-06
2.49115942917e-05
-1.88635070189e-06
0.00472748407267
-0.000447048409782
0.000708397384375
0.000275803055256
-0.0305535439205
0.0101410944315
0.066999622967
0.016518938151
5.86808206831e-05
0.00909367780552
0.00370122110729
0.00750646673309
0.0046513661829
-0.00550024693673
0.0341241602322
-0.00811703571689
0.000333409685269
-9.71420298186e-05
-0.000112299532964
-9.55812802352e-05
-0.000116342282118
0.0512796600571
-0.00032608495271
-0.000100080371365
-0.000115447966479
-9.90346226056e-05
-0.000113533858971
0.0512628287735
0.00031704203555
-0.0511539963051
-8.62505744235e-05
7.71672854683e-05
0.0118863499056
2.74937635024e-06
-7.26261179647e-06
-0.0118727665162
-0.00010213732258
0.000136195647351
-0.0118973711565
-1.62452269792e-05
-1.20650105219e-05
0.0118916007782
-0.000117313650882
0.0127903505766
-8.23384186143e-05
8.45344033981e-05
-0.012775314031
0.000283069069873
-1.27064255799e-05
-3.49452114876e-05
-3.21316172611e-05
-1.78463375525e-05
0.0513550324583
-0.000272376852415
0.0512733964692
3.67278241501e-05
4.58300049087e-05
5.30392425839e-05
2.67603509085e-05
0.000264637860138
3.37946337001e-05
1.36723945397e-05
8.3296836814e-06
-1.5659566359e-05
0.0512469676807
0.000250082836695
0.000106511639406
-0.000117250642577
2.48129449536e-05
0.0128222528324
-2.25154795296e-05
2.74169516477e-05
-0.0116209971225
-0.000123832245967
0.0116108970071
0.00012906672568
9.80903573645e-05
6.67009354583e-05
0.0128098583366
-0.0127909875273
5.95425684754e-05
0.0127823084695
-8.40377894161e-05
6.69917527942e-05
-0.0161811010337
3.66276353923e-05
-5.72591602807e-06
2.64971364173e-05
0.00385937903815
0.000485350465464
0.000618838054623
-0.00488656190927
-8.83074105359e-05
-9.99377025349e-05
-9.3461764151e-05
-8.3532893621e-05
-0.0112668313626
0.00184922493403
0.0127354870362
-0.00576474045922
-0.00840956849458
0.0140942297311
0.006203870367
0.0132925330701
-0.00744829677475
-0.00519874220727
-0.00109581373872
-2.86568946586e-05
-2.69184833834e-05
-3.71549504875e-05
0.00468545376794
2.08612241609e-05
-0.00255565809992
0.0166390184562
0.00588509240948
9.16421992902e-05
0.0128377744891
-9.20509899087e-05
-0.012816161207
-0.0128443504126
-8.01553723656e-05
-9.72640168419e-05
0.012850553769
9.21284891936e-05
-7.7469728671e-05
9.51648943695e-05
0.0118346396856
8.13424546001e-05
0.00010522839998
0.0118394034458
-0.0118557319679
-4.52180270405e-05
-0.0128209661202
8.4983252025e-05
0.0118247742012
-7.3316120108e-05
0.0128484463737
-9.58645396077e-05
0.0128604995242
-6.26111177983e-05
-9.8284116789e-05
9.27612327869e-05
9.7093612362e-05
-0.0128588558334
0.0128556306454
-9.63266058139e-05
-9.77923034133e-05
7.52401134829e-05
9.93555208062e-05
2.75230992483e-05
-0.0117861297582
0.011754101795
-0.000118197902262
0.0128570281222
9.15667670489e-05
-9.53347814737e-05
-9.70594574357e-05
-0.0128560871092
1.14877260153e-05
-0.000103751433099
0.0128551371385
0.000100094556058
9.94588478557e-05
0.0128508511596
-9.87472016534e-05
-0.000131845773177
1.04203233299e-05
0.0116798375013
0.000129124278449
1.01611686833e-05
0.0117164383947
-0.000126044908262
9.31095663954e-05
0.0116863420529
-0.00012745949353
0.0128477814108
-0.000102535383721
-1.07966002957e-05
-0.0128360832933
0.0128338154046
-0.000113547685999
-0.000130931971778
-0.0116668946047
0.0116490139653
0.000134759807953
-0.0116701345879
-0.000120029658851
0.011653482862
3.36269324082e-05
-0.000113731069965
0.000105732377809
-0.000134146994025
-1.26966314233e-08
0.00013382979045
-0.000126209346695
-0.000109317301151
9.66757553478e-05
-0.012852646934
0.0128309650732
7.35673595921e-05
-0.000123995097046
-0.01169754304
0.0116853806865
-0.0117084957954
0.0116999161434
-0.000118629296532
9.02763278927e-05
6.46705447348e-05
-0.0128632410713
-7.2220021384e-05
0.00012710559699
-0.0117332061421
-0.000123649022059
-0.0128688195078
7.14585379557e-05
-0.0117155205488
0.00271140427475
-0.000412689082375
0.000125055405476
0.000136415282993
0.000131352266439
0.000117176868812
-0.00429370931092
0.00137948358905
0.000105830237472
-0.0049446171899
-0.0159391468592
0.0115760459256
0.0115742197403
-0.0028104084924
0.00199885746642
8.85653712535e-05
0.000100172102287
0.000108373106898
-0.00347313819903
0.00206061148397
0.00184073363893
0.00249394615553
8.94757229089e-05
0.000124477135607
0.000107971571273
-0.00573082622088
-0.000409751011199
-0.0129311704617
-0.00200353959824
0.0109822400874
0.00665883412243
0.000810609419897
-0.0159202820095
-0.0032029177581
-0.0112955572897
-5.8288759718e-05
-9.08827410752e-05
-7.98120060261e-05
-3.85565467484e-05
-0.00125892143815
0.00322788456198
-0.00584282997955
9.76960368584e-05
-0.00583411698706
0.0054594609487
-0.00090088849479
0.0076449798158
-4.26218231105e-05
-2.05970662007e-05
1.56788854277e-05
-1.59618463913e-06
-0.0126872284424
-0.00530283211618
0.0033639897111
-0.0044847908762
0.00188172292697
7.07548765981e-05
2.1507299018e-05
5.36269037596e-06
2.48561884891e-06
-0.0198060214773
0.00622089633907
-0.00471518042
0.00697152448032
-7.96357715873e-05
-0.012760017577
-0.000102640613029
0.0127717323935
8.39362954574e-05
0.0127697259963
8.44973683911e-05
-9.10574774487e-05
-0.0127605977763
9.23088821206e-05
-2.13647316034e-06
0.0118950119106
-1.02722395194e-05
8.456893359e-05
0.0118872454078
-0.0118748937116
5.96873431105e-06
0.0127783833067
-8.1960998286e-05
-0.0127492630165
8.42998840053e-05
0.0118978210602
-6.89186630444e-06
-7.11584260015e-05
0.0127833009425
-0.000118008366826
8.05129655718e-05
-0.0127867787507
6.91123247412e-05
-6.10917740381e-05
0.0128027278668
0.000107178047101
-1.00118033765e-05
-1.00052310038e-05
0.000146481551594
-0.0118973539564
-3.48592153672e-05
0.0118939396692
-6.77656332946e-05
8.13676995503e-05
0.012801365968
-1.94883574645e-05
0.0118761133477
1.66448211109e-05
-7.40750385294e-06
-0.0118776681771
0.000136427847703
3.48359144694e-05
0.0118705668881
-2.92817858788e-05
-8.7659863558e-05
0.0128081658217
9.10398980924e-05
0.0127858091321
-0.000113517194886
-0.0127729856943
0.000137829634111
-0.0118910142265
0.0118846262313
0.0128040189135
-0.0118901151372
-2.16064486009e-05
0.0128326001233
-0.000113458325328
-0.000134499025102
0.0116438107913
0.000140967689343
0.011655498549
-0.000117202912645
-0.000113818014307
1.10933149766e-05
0.0128178615476
0.000100505120967
3.09148413213e-05
-0.000133623471842
0.0116324541108
0.000138966967367
0.0128325184496
-0.000112482650461
0.0116476535455
-0.000116599014793
-0.000103247669338
0.0128168339067
4.04600392884e-06
8.75589652579e-05
-0.0128344505674
8.94408032166e-05
0.0128353316947
-9.78579186244e-05
3.04581004831e-05
-0.000130303482832
0.000132777599394
4.47178344262e-06
-0.0116433726085
-0.000113782200891
0.0116341933927
-0.000106908311553
7.29897624517e-05
0.0128199309051
-0.000119449061005
-0.0128049720569
8.15491363917e-05
-9.56812609345e-05
7.39699568694e-05
9.85406146223e-05
7.85083606506e-05
-0.000110567324574
0.0116870856887
0.0117002170156
-0.000103246350132
0.000108597675091
0.0116940267804
-0.000100651113488
3.94886592013e-05
0.0128019447793
0.0116800390038
0.0117015431463
0.000106753834534
-9.74464732511e-05
-2.90403398621e-05
0.000104681396917
0.0117003204993
-9.50435717805e-05
-7.03682577388e-05
0.0127818548258
5.55335128556e-05
0.012798836608
1.49212981146e-05
1.49809788388e-05
-0.0116806647448
0.0116722142933
0.012800822893
-8.89555644835e-05
-9.19854309442e-05
-8.02395234841e-05
-0.000291473931497
0.204990863084
-6.1386294926e-05
0.000214727607646
0.000220912658295
-2.08349908597e-05
-3.15919952737e-05
-3.22518064383e-05
-1.74774265825e-05
-0.000234766421625
0.0513820714243
1.46218366749e-05
-0.0079779972544
8.46518507518e-05
1.00396733646e-05
9.50413430809e-06
1.16518225198e-05
0.00609785952548
-0.0180565987751
0.00561494142298
0.00622475208238
0.00612004946353
0.0210160647186
0.020593385017
0.00571189811334
0.0106871957834
-0.000110492652511
-0.000107689593108
-0.000109384862566
-0.000105605543923
0.000331465894819
-0.000303502727244
0.0513549452685
-0.000118510401304
0.000137521087008
5.44214538133e-05
0.0118548683162
0.0512689526924
-3.17521145038e-05
-5.92256140009e-06
-2.28713288507e-05
-2.51124069153e-05
0.000192737933338
0.0512910487668
-2.51492487433e-05
-2.56935394412e-05
-2.22854790505e-05
-2.55803159444e-05
-0.000121846930294
0.000118358457049
2.42692259755e-05
0.0115906390766
-0.000112479119113
0.000123067928203
-5.01765112471e-06
-4.20098634559e-06
9.89656021716e-05
0.0117017024483
-9.08451897729e-05
0.0116761833333
-7.56153276726e-06
1.9344211958e-05
5.211145138e-05
-0.0116800798879
-6.01304401736e-05
0.0513084697443
-1.02941241441e-05
-2.25641919961e-05
-1.84584171538e-05
-1.76184394188e-05
5.8290780152e-05
-3.96096026087e-05
3.2845945961e-05
-2.29556160462e-06
-3.2679277524e-06
-2.66468964146e-06
-7.39473463678e-06
1.85486878725e-05
7.06894443605e-05
0.0512835832035
-4.86673258362e-05
9.28825228091e-07
1.37993947551e-05
2.72112055476e-05
0.011672596577
-3.84194177307e-05
1.55469734134e-05
-5.90863416286e-06
-1.66689138695e-05
-0.0116707928001
0.0116652447179
1.24374345872e-05
0.000123459989401
9.51919731469e-05
0.000101124991047
0.00286796508205
-0.00904064638395
0.00299107554405
-0.0133779979396
0.000104158199087
1.29786156914e-05
1.61624442075e-05
1.05831155637e-05
-0.00743648439442
6.43612986404e-05
-0.0127417224369
1.01170930253e-06
1.13661078205e-05
5.84579671772e-06
0.0070429277977
-0.00776973963349
-0.00094457600111
0.00470389540121
-0.00277572727036
-0.00210414647785
0.00298274821381
0.000930587644424
0.00067768442036
0.00244634467728
-0.0118273024884
-1.47329225536e-06
-7.55940214539e-06
-9.78858346953e-06
0.00423518908317
6.76596601088e-05
-0.00519777583995
-1.80037469155e-06
-1.34668119031e-05
-5.20341727994e-06
-0.00139256995334
-0.000158186553793
-0.00972256460576
-0.000517808125243
-0.0128304453427
-0.000136612078035
9.03945910531e-05
-7.80529947996e-05
0.0128442262477
-8.78544486407e-05
0.0128338588983
0.000145135052918
0.0118697134944
4.76858897736e-05
7.03905025467e-05
0.000123509412111
0.0118374790878
-7.83434148306e-05
5.69323334436e-05
0.0118476083228
0.012846527095
-5.63148665042e-05
-0.0128228213105
-1.1105834515e-05
4.47341935535e-05
0.0128246832717
0.0128385204057
7.23628702968e-05
-8.292672935e-05
1.84116553099e-05
-0.000101981274927
0.00011410020545
0.0115701345911
7.55090492269e-06
0.0116216141233
-9.79732308101e-05
-6.92167542585e-05
0.0128375238416
5.95406189824e-05
-8.35992236357e-05
0.0116037574653
-0.0128041278604
-2.33597573607e-05
3.27633746926e-05
0.012807682919
-5.4760365879e-05
0.012783623015
4.29534019627e-05
2.14140349699e-05
0.0116647932918
8.86298634469e-05
2.42009947328e-05
0.0116931433665
-8.80808225824e-05
0.0116570319885
0.0127909019407
2.46114910542e-05
0.012813745198
-2.03403622186e-05
1.49459105496e-05
-2.58161847489e-05
-1.67509437042e-06
-0.0128004651498
0.0128019399657
-6.19716575911e-06
1.38703788702e-05
-0.0116475569385
0.0116435652391
4.32262102365e-05
6.76187920188e-05
2.86302985913e-05
-7.1928486246e-05
0.0128149573695
-1.13345474155e-05
6.25645030698e-05
8.42722302483e-06
-0.0128137941726
2.92304480437e-06
-2.01325548924e-05
0.0128057193784
1.49902573304e-05
9.75680137285e-06
0.0128018967756
-1.85339147743e-05
9.97584623357e-06
0.0116402540752
1.90231040438e-05
9.9339937218e-06
5.88526679552e-06
0.0116718553738
-2.26404058608e-05
2.40953308968e-06
0.0116392925788
4.02460505005e-06
0.0127977522662
-2.7771304754e-05
0.0127993369062
5.67842026211e-06
-2.71963620299e-05
2.55948304477e-05
3.19996672863e-05
-0.0127924297317
0.012788161695
-3.69404896792e-05
7.629948298e-08
-0.0116453108968
-1.92546527727e-05
0.0116459704709
-6.31442811065e-06
-3.7553572968e-06
-2.62196033256e-06
3.3839276258e-05
0.0127949173658
-1.18551400951e-05
-3.30946139911e-05
-0.000658712124262
-0.0501405655167
0.0499154861159
0.000685129892898
0.000154494350901
0.000120225186351
0.000156847122427
0.000121459435379
-0.00035469770422
-0.000735107182002
0.0503126540672
7.78844280864e-05
6.68859820533e-05
7.82839878888e-05
6.86741461448e-05
-0.00015230024138
-0.0504400813886
0.000722791011722
-0.000999393677012
-0.0502692693472
0.0503499818183
0.000889785210926
4.09614238492e-05
5.38766730084e-05
5.02829774097e-05
4.74895609702e-05
-0.000163723831849
-0.000764942255025
2.82403805378e-05
3.64195201752e-05
2.8302062356e-05
3.67949883926e-05
-6.95868062455e-05
0.0504649440224
0.000676060620378
-0.050436217349
-0.000220584791306
0.00222861846145
0.0229931409278
-0.0168126895331
0.00274808709289
-0.0102335004262
-0.000255672478382
-0.000224456291535
-0.000242777065901
-0.000310159721174
0.00805610363516
0.00110848138221
0.00399106760172
-0.0122139331149
-0.000327368319787
-0.000270098334321
-0.000267989741475
0.000202259100496
-0.000134778930282
-0.00423557103782
-0.0239646681019
-0.0053479945954
-0.000138344042477
-0.000124832319232
-0.000130065154114
0.032157512706
0.00191828424145
-0.000161023487331
-0.00500640938155
0.0143795352635
-0.00525107380667
0.00257377778446
-0.00612419789972
-0.000160365348813
-0.00012526469573
-0.000124983237208
-7.40433273063e-05
5.30995304396e-05
-6.68211299385e-05
-6.6992575097e-05
-6.35455201729e-05
-0.00778481665631
-0.00226422306997
-0.00363794296993
0.0139052505992
0.0573159552562
-0.0220489318445
0.0111116562863
0.0188091033399
0.014876094432
0.0203072163664
0.0140874632613
-0.019618955613
-0.0469935422425
0.013985955502
0.0108332332213
0.0146421099636
0.0115497701654
0.00101700508882
0.061812556173
0.0419599074346
-0.0285739741949
0.0157703893376
0.0195954329258
0.0137814218373
0.0168146025663
-0.0109032525276
-0.0290467458027
0.0171769428749
0.0138061654597
0.0146362622628
0.011970814437
0.0487280066491
0.0531168019182
0.0121219855341
0.0147712916731
0.01364148815
-0.0270568975347
-0.0126821851124
0.0123291688609
0.012163533554
0.0104350266222
0.0105713140224
0.00844645939448
0.0718845152826
-0.012100698885
0.000369948657296
1.08294598276e-05
4.67133415688e-05
6.41376649524e-05
-1.54619111351e-05
0.0500278479005
-4.66361768546e-05
-0.000168378527369
-0.0502893411587
0.0500189723543
0.000506853478565
2.78526689236e-05
9.25793881935e-05
8.20049368022e-05
3.8229424332e-05
-7.70863020734e-05
-0.0503198579685
8.47652230056e-05
-6.62671737322e-05
-0.0121722290908
-3.93153651587e-06
0.0121513399424
7.59240149001e-06
0.0121487429117
6.57344063207e-06
0.000167386440565
-0.00014481523654
-5.98516120365e-06
-0.0121716738373
0.000172015457308
0.000138527731369
0.000127164456598
0.000179071088009
-0.000496342096527
0.0124348593982
0.0123577452303
0.012428786128
0.0124396478178
-0.000421855813042
8.87015977145e-06
0.000238405138067
-0.000170974158713
-8.96317645491e-06
0.0120799704116
0.000599959323231
5.31891353476e-05
9.32086219876e-05
4.73782946285e-05
9.40211564845e-05
-0.000136347765195
-0.0503853396342
0.0502806468562
5.08345753528e-05
8.60850675792e-05
8.21261046074e-05
5.72395013198e-05
-0.000156142849133
-0.0504439079683
0.00064304591538
0.0121643870033
0.000157966819279
-0.000131565542004
-0.012184205252
1.57739884534e-07
0.0121819060066
0.000108024199092
-0.000100474415358
1.39690101915e-05
-0.0121827349351
-2.06706213673e-05
0.000929097810505
0.000160292677903
0.000200482937209
0.000164520350863
0.000187159764502
0.0496556452509
-0.000226378513288
-0.000188879559003
-0.000221618933328
-0.000185352609102
-0.000165241384438
-0.000116564187088
-0.000157421022535
-0.000120290438802
0.0500946058172
0.000114363777806
8.87819107425e-05
9.06955097051e-05
0.000105257506943
-0.000263662752448
0.0500780825038
0.000838874320542
0.000111802760324
0.000106634670551
0.000126208302972
0.000100838286321
-0.000338993548442
-0.000151149280765
0.0121003999255
3.0106866752e-06
0.0118883936403
0.000327984227105
-0.000248902901384
-0.0119654091508
5.02681756102e-05
-5.24163262154e-05
-3.20318652029e-05
0.000159946184309
-0.000105271655685
2.2445000137e-05
0.0121368503623
0.0119746970813
-1.0035327763e-05
0.000201107796253
-0.000113689578403
-1.18134195378e-05
-0.0120403816955
0.0501414073088
0.000119737328509
9.22309430748e-05
0.00011213623715
9.4335972854e-05
-0.00109208305568
-0.000389346540077
0.0011825452563
0.000113624545934
7.9616609823e-05
8.97592090474e-05
0.000106275116938
0.0506211643678
-0.000518377528925
-0.00153357968143
-0.000236068647154
0.0118255340404
6.73632774557e-05
-7.86808508479e-05
0.000210355577122
-0.000213286994292
-0.011776199559
0.000147554039288
0.0117892775577
-0.000157832046864
2.9913796925e-06
0.000178569919096
-9.21610028815e-05
-2.94849828997e-05
0.0119147141588
7.88998407367e-05
0.000112263091984
-5.47760155249e-05
-0.000107980554758
-0.0118379713614
0.0118095215627
0.000782848602364
6.48054711617e-05
6.98363731721e-05
6.53280521964e-05
6.48667355468e-05
-0.000165456865556
0.050387014585
5.91755078329e-05
5.97987608596e-05
5.74976550193e-05
6.19908582394e-05
-0.000142078505965
-0.0504245981662
0.000724017259519
-8.90085734136e-05
0.0121299892275
-4.16251474063e-05
-0.012166578884
0.0119905730195
0.000176438398671
-8.83619073692e-05
-0.0120499615566
-3.8673135536e-05
0.0120074628879
0.000125921543678
-7.96248042326e-05
5.59882480431e-05
-0.0120539916637
-5.58184880496e-05
0.000977031412724
3.25741771642e-05
3.35488728926e-05
4.19128223154e-05
2.28619484223e-05
0.0505973844751
-0.000172880037184
0.0504349346503
3.18270371653e-05
4.26774441495e-05
3.83789308356e-05
3.42573533222e-05
-7.02216477159e-05
1.99912687163e-05
1.00248464725e-05
2.30593970788e-05
7.6242170807e-06
0.0505618294804
0.000818293317811
-2.89703924321e-05
-6.54223635868e-05
0.0119304143366
-3.25072921573e-05
0.000114018542866
-2.78408944219e-05
-0.0118478550814
2.57626720498e-05
0.011814811679
-5.88326484759e-05
9.76023440274e-05
-5.72059137867e-05
5.82855915463e-05
0.0119676650506
-4.23124946312e-05
5.37943908279e-05
-1.01034972407e-05
3.33858954034e-05
-0.0118959846061
0.0118612000726
-4.97453569014e-05
0.0119708636791
-4.70004928637e-05
-0.012007033928
-8.70194236259e-06
-0.0119071001146
0.0118776908822
3.48857548227e-05
-3.90868016299e-05
-0.00580048282198
-1.19263445537e-05
-0.000123079661843
-4.48693979664e-05
-0.0211851225108
0.00490244533814
0.0217870222248
0.000558889306275
-0.0211882602305
-0.00354197747714
-0.000146181483468
-8.46601295205e-05
-6.79011897777e-05
0.022160675897
-0.00276634454151
-0.00930092195929
-0.000216390201861
-0.000289364924416
-0.000273233617967
0.00662925605418
-0.0152704818881
-0.00733752751803
-0.00563215614888
0.00562340476854
0.00382377790226
0.0145736902619
-0.00243849359938
0.00101096852395
0.0124674389761
0.000455950825097
-0.00677529043047
-0.00728887007064
0.0139268131473
0.000408077735877
-0.00294174269896
0.0136257761379
0.00160404096212
-0.00796531015464
0.0135237238051
0.00785950909721
-0.0112714499987
-0.0010579099622
0.0111517708226
0.0136138479503
0.00038409003526
-0.00702092239552
0.0136962030412
-0.00870765099414
-0.00207612965832
0.0114263490213
-1.38750548858e-05
-8.97354870854e-05
-0.000138153135024
-8.63250642528e-05
-0.00461586340656
0.0245494152415
-0.0275254520867
-0.000115350767039
-8.98685307958e-05
-8.13678233816e-05
0.0300852842718
-0.00437263789316
0.00219342205669
0.00408183150149
-0.0124207717296
-0.000292304694283
-0.000305820357698
-0.000259836414614
0.000760891764757
-0.0206585987675
-0.00763510458515
-0.000188443221207
-0.000169063727802
-0.000200397074445
-0.00894972659316
-0.0116366875615
0.00487710795235
-0.000256131398099
-0.0001828891633
-0.000229002609453
-0.00693069811149
-0.0081212286104
0.0134144433643
-0.00527926828519
0.00257581077274
-0.00531030033292
-0.00918916992231
0.0125309761804
0.00380507079045
-0.00655616425257
0.00293691283531
-0.00947677410518
-0.000255888922676
-0.000166082572904
-0.000188308803416
0.00727625749439
0.00119442960169
-0.00262743721708
-0.00918336966229
-0.000234610052971
-0.000185390482416
-0.000243403290986
-0.0077076065328
0.00475199847089
-0.000164329505489
-0.000127056741869
-0.000182409583778
0.00385213507795
0.00722996796881
-0.00674120999401
-0.00379610035851
0.00678254321999
0.00890985370095
-0.00639540485339
-0.000905491520569
0.010246167428
0.00219082139469
-0.00628080468035
-0.000155492512977
-0.000149859521037
-0.000136456456996
-0.00473010230539
-0.0144775448708
-0.000124825496642
-0.000116386836419
-0.000117024054199
0.0223070313465
-0.000424793114627
-0.0012961442142
0.00647508115803
-0.00760167744196
-0.00591794220524
0.00656420911845
0.00825919653568
-0.000872496258961
-0.00440461622285
0.00370086448098
-0.00576410265591
-0.000119331322881
-8.29645448883e-05
-8.74697548323e-05
0.00196823369899
-0.00694726735091
-0.00451117828477
-0.000103858103861
-9.54628045386e-05
-9.61857670764e-05
-0.00392719132803
-6.84769502784e-05
-6.1183617011e-05
-7.64713278011e-05
-0.000413652019237
0.00135474251206
0.0116611788784
-0.00542450359217
-0.00142408300419
0.016841348011
0.0132103875413
-0.00430701343001
0.0192470586712
-0.00294732971529
0.0126601335956
1.40504651781e-05
-8.7607029436e-05
0.000100047356401
-0.012675910301
0.000100563852108
-0.0126475705754
0.0125937639124
-6.63722539222e-05
1.63790532426e-06
1.76057861801e-05
3.80381064834e-06
-0.0122076963988
-0.000108121837375
-0.012160657968
1.2129648835e-06
0.0121407553672
0.000113547718146
0.0126028264348
7.50091575035e-06
-0.012197632311
-6.1627108679e-05
-0.0126720600862
0.0126699729985
0.00011088494634
3.01700111795e-05
-0.0126834883676
-0.000123914262793
-0.012673756687
0.0126221014292
0.000123003350031
-0.000127916328848
-0.0121722845922
0.0121493046329
-5.30661786789e-05
-7.26840397463e-06
9.33256833109e-06
-0.0122058301164
0.012613738759
0.000112544850604
-0.0126907296401
-0.0122103232395
-0.0125767527791
0.00014076085333
0.000221717076347
-0.00012851242724
0.0125147603433
-0.000133723543995
0.0125883686477
0.000134120310541
-0.000152220172281
0.0120763845726
-1.2878394017e-06
-0.000233692960257
-1.47757180207e-05
1.4233846992e-05
0.0120252467731
-0.000122591398326
0.000140474872927
0.0125340134742
-6.47877963945e-06
0.0120167325956
-0.000121755130942
0.0126825976141
6.07608155917e-05
0.000130299597533
-0.0126987934597
-0.0126795449308
0.000124887826967
0.012639040551
-5.56232178664e-05
2.8589838389e-06
-0.0122122456642
-0.000121767483329
-0.0121881028244
-4.32615044137e-06
0.0121765540009
-0.0126974348523
0.000130335647827
0.0126493200051
-6.44093278123e-07
-0.012210491137
0.0126839824629
0.000139273596622
5.72852646508e-05
-0.0126996064813
-0.000139820545749
-0.012684066403
0.0126585236514
0.000150956599825
-0.000100265329117
-0.012185609803
0.0121797900247
-6.73755767609e-05
8.77548082057e-06
-0.0121980669233
-1.6051992466e-05
0.0126564844088
-0.0127006351181
0.000145553503273
-0.0122020805226
-0.000138213252329
-0.0126166776974
0.000188045682935
0.0125782064012
0.00014315670467
0.0126065527857
0.000135571994939
-0.000199336518186
1.27695698838e-05
0.0120454877261
-0.000151274565105
0.0121128323646
-7.29582208964e-06
0.012566352611
0.000138380190951
0.0120628275982
7.4905723086e-06
-0.00016133761537
0.0125572873379
0.000183650801245
0.000158955186926
-0.0125359935057
0.000174544517691
0.01249362049
-0.000180750954867
-0.000201452839517
2.23177098251e-05
-3.31099743747e-05
-0.00022385183056
-0.011993347758
4.46283496281e-05
0.0119163429632
-0.00016809941022
0.000172918112409
0.0125219667884
1.55357537419e-05
-0.0126224993026
0.000146987250675
0.000142038075033
0.0125911490896
-0.000141538817303
0.0126294840768
0.000153784640486
-0.000120923951709
0.0121273134855
-0.000120334995754
1.07333707151e-05
0.0121022719156
-2.48912781575e-05
0.0126005561809
0.000160744963014
0.0120877844516
0.0125723622989
0.000155989498309
0.00013359050307
-0.000169961868621
-0.0125868425569
0.0125683364714
0.000181376452913
-0.000153441989902
-0.0120192625379
0.0119496657785
-0.000102704466553
1.12917883607e-05
-2.96342750703e-05
0.0125479243376
0.00016764933872
-0.000226241936841
-0.0125066895289
0.000213798095786
0.0124892782484
0.000228285146002
-0.000198509192492
0.0124697129102
0.000197952911332
-0.000201710280708
-0.000208516069531
-0.000259255391501
9.88893099396e-05
0.0117696134842
-0.000111212795917
-0.000202866421332
0.011850538272
6.53966327024e-05
0.0124500722347
-0.000222574928515
-0.000243406232403
0.000197157338637
-0.000186997071839
0.0117979822843
9.67588693493e-05
-0.000258886826454
0.000196931735586
0.0125107847986
0.000260464053195
-0.000220183885493
-0.012471695849
0.000301426775262
0.0125366932592
-0.000331090712358
-0.000248635155126
-0.000251048962028
0.000125891761868
-0.000137121144394
-0.0117978732699
-0.000165702330299
0.000152419218217
0.0117924700953
-0.000283039183461
-0.000248748963053
0.000134132454023
0.000298054936166
0.0125643504364
-0.000216182144806
-0.0125365608155
0.000210787177359
0.000144084920543
0.0125297569218
-0.000187012703847
0.0125607073559
0.000194631484172
-0.000133435763328
0.011884234626
-9.77387105815e-05
-5.25671311353e-05
0.011855568484
2.38693820481e-05
0.0125572861486
0.000210590814793
0.0118293844295
0.000231194391681
0.000126748821526
0.0125457182091
-0.0125699725729
-0.000259694507991
0.00024872447088
0.0126057868982
-0.0118198134211
-9.98711538609e-05
0.0118002080151
-8.02576197213e-05
-8.80139445223e-05
5.89954375564e-05
0.000227826465641
0.0125903115446
-0.000164663205731
-0.0126438678771
9.63997802677e-05
0.0126208589491
0.000169158860562
0.0126364526098
0.000157407083876
-0.0126624189263
-9.85045812012e-05
-3.79036586759e-05
0.0121031131382
-8.67995228362e-05
0.012129888249
-0.0121632992464
-4.640550333e-05
0.0126124309498
-0.0126671892713
0.000162417853077
0.0121048546261
-4.66722836649e-05
-0.000166441105208
0.0126073249728
7.43581150762e-05
0.000170462298517
-0.0125975796449
0.000178077237087
0.0125823162874
-8.13649331799e-05
-5.06273342266e-05
-7.62531436279e-05
-0.012056137649
-5.66855333546e-05
0.0120004433775
0.000180662188258
0.0125932949145
-6.40779214416e-05
0.0126147910347
0.000165606833079
7.68944454952e-05
-0.0126276558912
-0.000173274894614
-0.0126224313492
0.0126117440511
0.000164106299362
-7.56438313267e-05
-0.0120549801307
0.0120051186784
-7.98163375844e-05
5.87586154073e-05
-0.012095549713