/*--------------------------------*- C++ -*----------------------------------*\
| =========                 |                                                 |
| \\      /  F ield         | OpenFOAM: The Open Source CFD Toolbox           |
|  \\    /   O peration     | Version:  v1906                                 |
|   \\  /    A nd           | Web:      www.OpenFOAM.com                      |
|    \\/     M anipulation  |                                                 |
\*---------------------------------------------------------------------------*/
FoamFile
{
    version     2.0;
    format      ascii;
    class       volVectorField;
    location    "11.25";
    object      U;
}
// * * * * * * * * * * * * * * * * * * * * * * * * * * * * * * * * * * * * * //

dimensions      [0 1 -1 0 0 0 0];


internalField   nonuniform List<vector> 
28582
(
(0.815295071718 0.00378395787729 -0.000753802760781)
(0.816723190433 0.00314239750612 -0.000757281736434)
(0.815896319799 0.00413788079924 -0.000967508536135)
(0.817272000305 0.00315026585487 -0.000537936221763)
(0.816410334716 0.00411228165919 -0.00274722512878)
(0.818292606249 0.00333660411041 -0.00173072617585)
(0.818864837629 0.00503298639565 -0.00531715010556)
(0.822523564954 0.00453315204925 -0.00135406661428)
(-0.0939497388741 -0.00890552209114 -0.00933889406112)
(-0.326172353185 -0.0293948140345 0.00237789359344)
(-0.107536825528 0.136659841428 -0.385638409347)
(0.821655999005 0.0049207007108 -0.00322811260895)
(0.757474001684 -0.00745850662375 -0.00777088282039)
(0.752240352637 -0.00933708548238 -0.0054507321594)
(0.822171869544 0.00444991001594 -0.00124405070856)
(0.82171901941 0.00466213052227 4.33671232121e-05)
(0.750704627165 -0.00892390634732 -0.00357846043269)
(0.821643245532 0.00597480480989 -0.000268341322473)
(0.821743455145 0.00557299044254 0.00180717598813)
(0.814246565154 0.00646856332642 -0.000935938483159)
(0.818156587948 0.00141692412967 -0.000486893730778)
(0.817710959444 0.000791432170022 -0.000586145124131)
(0.814223754704 0.00617912904363 -0.00108922444929)
(0.818644304273 0.00191177929887 0.000133714674422)
(0.818070425714 0.000937674305469 0.000358635216645)
(0.813405405293 0.00587405804632 -0.00329894914259)
(0.819282813474 0.00193078375155 -0.00129367838773)
(0.815930306958 0.00595756892744 -0.00469705005743)
(0.821825500055 0.00435533401381 -0.0016517477417)
(-0.341427902492 -0.0456737981729 -0.00399571714444)
(0.178014856176 0.28499422982 -0.23736528872)
(-0.0997897780055 -0.18520008038 -0.283478737696)
(0.818228806874 0.0045799941975 -0.00699724505394)
(0.817517823895 0.00478074888978 -0.00718668815697)
(0.762488807712 0.00112386588343 -0.00427305559244)
(0.76068623559 0.000209311150715 -0.00912874083473)
(0.815663126954 0.00516248403614 -0.00753233597843)
(0.821525305396 0.00382183794133 -0.00153700875707)
(0.821186442415 0.00459723630259 -0.000340554014399)
(0.820208963602 0.00387991733263 -0.000713974971745)
(0.820905887702 0.00600265899589 -0.000611243166504)
(0.743894979073 -0.00555165544518 -0.00137419434989)
(0.820599388826 0.00580455695404 0.00160816265548)
(0.818169638666 0.00452469215338 0.00183243133879)
(-0.16456092504 -0.0255478604389 -0.000600367432724)
(-0.226174793334 -0.00195844775677 0.00778979919026)
(-0.209695153148 0.0677951616854 -0.068200985506)
(-0.194317570968 0.079657238034 0.00341287258807)
(-0.2759097355 -0.028349919454 0.00658793403328)
(-0.284287553359 0.0496658122489 0.00812160373331)
(0.818296725196 0.00543930937901 -0.00870907685829)
(0.820801677733 0.00575027232714 -0.00935406644247)
(0.755538173636 -0.00842230143036 -0.00834097059618)
(0.757037783413 -0.007207645435 -0.00794828422879)
(0.818534451554 0.00556867160763 -0.00869375008969)
(0.754849925383 -0.00836166144548 -0.00814509284784)
(0.820797673962 0.00560159192553 -0.00959331514603)
(0.822458794518 0.00546653516178 -0.00810312328002)
(0.823876662681 0.00536717070883 -0.00636643375113)
(0.754268895966 -0.00885538830899 -0.00754205960216)
(0.752155512534 -0.00971129499307 -0.00499399994632)
(0.823797001492 0.00540751908734 -0.00555539996878)
(0.753898721042 -0.00910711390397 -0.00719694668166)
(0.822573564123 0.00538040281413 -0.00869191098462)
(0.823277490813 0.0055009973057 -0.00128792423036)
(0.823879436424 0.00555020052991 -0.00507656139153)
(0.749651237369 -0.00866286656428 -0.00177817353248)
(0.751048848395 -0.00962339923193 -0.00354806986771)
(0.82370820033 0.00551606416009 -0.00422882720244)
(0.749899500955 -0.0093208825461 -0.00128670642061)
(0.823278800723 0.00568050974324 -0.00253917206325)
(0.821681858139 0.00613953720565 -0.0020485673145)
(0.747347347532 -0.00757397452689 -0.000556498745192)
(0.747707968341 -0.00784635478255 0.000723062399995)
(0.822648870481 0.005721739436 -0.000891236780112)
(0.747701639276 -0.0082446307258 -9.15929992063e-05)
(0.747908814595 -0.00892551057318 0.000731097529186)
(0.822605602503 0.00602060369346 -0.00186121333461)
(0.821589188088 0.00488820577262 0.00354042546597)
(0.749967965983 -0.00760515620928 0.00241123854268)
(0.751029731092 -0.00833515144621 0.0035140817274)
(0.822926494487 0.00524262848962 0.000616853570318)
(0.750860053398 -0.00939538372111 0.00229383695164)
(0.823092034825 0.00467425778223 0.00166262370157)
(0.749949496429 -0.00906516181407 0.00187082666327)
(-0.014620356915 0.00112009229816 -0.00685661453436)
(-0.189118336168 0.198389822385 0.125476533955)
(-0.0278681575867 0.0586758859918 -0.0033253988007)
(-0.0396567325663 0.0259307911929 -0.00221633668901)
(-0.144675138696 0.0996773675967 0.128398863953)
(-0.203777329235 0.0540602117255 0.131101360449)
(-0.21329280742 -0.0541724022404 0.0028880487941)
(-0.155682075985 -0.0472759602512 -0.0640325041297)
(-0.136667366327 -0.0760647357597 0.0171830336367)
(-0.209016253346 -0.120936952806 -0.00186468852096)
(-0.104245827198 -0.0513824196947 -0.0189030452987)
(-0.329225276691 -0.0896388173065 -0.00515421079556)
(-0.108473351592 -0.100148293253 0.0108988744125)
(0.814660297739 0.00510385516806 -0.00695672222244)
(0.81507293747 0.00572294220209 -0.00552455506554)
(0.762573332163 0.000827385044963 -0.00535098873183)
(0.762307703075 0.000172218044804 -0.00416233241454)
(0.815488270503 0.00480930257164 -0.00702062375127)
(0.814322980511 0.0055915797683 -0.00522808164467)
(0.762538732628 -0.000731106436675 -0.00544408321071)
(0.815895038987 0.00430859053495 -0.00792386362159)
(0.817452397629 0.0027926849091 -0.010855106639)
(0.761504218464 0.000343768760978 -0.00657129753216)
(0.760641698404 -0.00229054018604 -0.0094319451177)
(0.81655125538 0.0036547613357 -0.00784884856571)
(0.816882314504 0.0038132761154 -0.0111211848081)
(0.761367278497 -0.0016395236393 -0.00688396206658)
(0.759887369411 -0.00415334717653 -0.00600647246268)
(0.758962704773 -0.00561926225809 -0.00861200184026)
(0.816450331417 0.00524898822246 -0.0103039264799)
(0.815707395724 0.00498272462282 -0.00743847334004)
(0.760049963739 -0.00498787345415 -0.0084673564435)
(0.816470599293 0.00479612774184 -0.0103075288565)
(0.760712877969 -0.00361029173773 -0.00579774789239)
(0.821118347411 0.0062504371127 -0.00232514150941)
(0.746089189857 -0.00740385857889 -0.000678594892531)
(0.746371351334 -0.0071938434083 0.00102742596385)
(0.820473746591 0.00569468287198 -0.00120773395344)
(0.745517592738 -0.00653352380505 -0.00102343820249)
(0.820747610161 0.00644809919408 -0.0029920377651)
(0.746376645844 -0.00599880887837 0.000727333229033)
(0.820073571278 0.00503321716924 -0.00137614594468)
(0.820918851165 0.00560401390711 -0.00331508534292)
(0.745158786706 -0.00603057884169 -0.00127136012547)
(0.745590799961 -0.00455834772839 0.00038788335733)
(0.820701593766 0.00617367425251 -0.00308879479847)
(0.82003452244 0.00414099848016 -0.00182862176572)
(0.746006703475 -0.00536014508795 0.000364005785944)
(0.819250686983 0.00479035672979 0.00277942569708)
(0.820606699207 0.00509579000745 0.0032820998663)
(0.749117112017 -0.00616579990838 0.00240995725648)
(0.750264554743 -0.00698931667588 0.00428057269609)
(0.750801213795 -0.00609806540987 0.00372529828979)
(0.81973414999 0.00541660672073 0.000210439887571)
(0.749557630543 -0.00517294212187 0.000790584115234)
(0.749973356758 -0.00478454437088 0.00320999756827)
(0.750441349926 -0.00359290971356 0.0012733282421)
(0.817803385744 0.00379664789907 -0.000532475694204)
(0.819084596129 0.00477387282734 -0.000865183179507)
(0.748384671069 -0.00331876013746 -0.00132742975988)
(0.818783851783 0.00393852712268 -0.00223810667872)
(0.748727767567 -0.00416680310272 -0.000248899319688)
(0.819480865872 0.000717737592099 -0.00109715131354)
(0.821927027038 0.00277930878811 -0.00143040706193)
(-0.290788632015 -0.107622536966 -0.00642844257921)
(0.0297739366164 -0.0377169874113 -0.341710856212)
(0.819525144341 0.00462483075812 -0.00632094150007)
(0.757509348908 -0.00649173902414 -0.00935804221847)
(0.820156256552 0.00278344746606 -0.00171880033784)
(0.820254706491 0.00111706166584 -0.00143559675468)
(0.742802763555 -0.00476871317184 -0.00131776995925)
(0.749655697676 -0.0028673766598 -0.000373787512466)
(0.7488059613 -1.59881287265e-05 -0.00167461382279)
(0.820495450913 -0.000158865991869 -0.00142807062504)
(0.820633619645 -0.00162411879177 -0.000415765549814)
(0.749188186123 0.000895158219424 -0.00109542971221)
(0.748977571188 0.00186407276461 0.000661798208595)
(-0.0778167553784 -0.0273370266751 -0.00966189080852)
(-0.209127099718 -0.138480003832 -0.00473729154868)
(-0.195646336187 -0.133367435991 -0.0023559573172)
(-0.0639532686557 -0.0530380869624 0.00445575479576)
(-0.048697466623 -0.0137768399053 -0.00190422727985)
(-0.0437731153419 -0.00545166905858 0.00258188412511)
(-0.183573839816 -0.100300332607 -0.000244115156038)
(-0.173054254359 -0.0281184132728 0.00129302374948)
(0.820986209134 0.00443514106056 -0.0114548917417)
(0.818451993069 0.00504032773226 -0.0103698335438)
(0.758100013047 -0.0054303539514 -0.00938434460074)
(0.755282482655 -0.00726339756276 -0.00975694198973)
(0.818469972344 0.00443636700423 -0.0106048368984)
(0.755803112093 -0.0061312699232 -0.00970644841573)
(0.820850480951 0.00521205143431 -0.0111691011851)
(0.820514203448 0.00183682334699 -0.00194080718544)
(0.821145507644 0.00454898821315 -0.00318228218479)
(0.742397433276 -0.00402750683406 -0.000552154769134)
(0.744660983842 -0.0034452170824 0.000139641586093)
(0.821420415353 0.00364011871331 -0.00272991245186)
(0.820146178859 0.00295272487087 -0.00176292050255)
(0.744191232834 -0.00232356378936 0.000253592384906)
(0.819231684671 0.00155484610879 -0.00320161402747)
(0.817666996446 0.0027153355507 -0.00142800994253)
(0.747879173537 -0.00248777309131 -0.00176435255225)
(0.749385298314 -0.00199786115839 -0.00140323678062)
(0.81890590561 0.00287004379837 -0.00236048337649)
(0.747253599842 -0.00153124894367 -0.00191179742586)
(0.818099125116 0.00137750647386 -0.00311925560431)
(0.819650883002 0.000637315001581 -0.0027306691329)
(0.819258894335 -0.00064326849331 -0.00302197400871)
(0.746910119889 0.000608122704856 -0.00129589142)
(0.749230055646 -0.000926395206187 -0.00202516540083)
(0.819990631713 7.75757394593e-05 -0.00252892607663)
(0.747033809258 -0.00033699255321 -0.0018613683831)
(0.818644364329 0.000373656688095 -0.00302490055684)
(0.819911870854 -0.00102452961994 -0.00116874667247)
(0.819242622373 -0.00129278957375 -0.00227624019222)
(0.747316802655 0.00166723071696 -0.00103269126463)
(0.748987487453 0.00129036025386 -0.00027046677217)
(0.820002849876 -0.000584819648235 -0.00178589118207)
(0.747767476281 0.00193404493394 -0.000220270103517)
(0.819347453977 -0.00172026692631 -0.00150340252591)
(0.819424784133 -0.00136962263233 -0.000408575810703)
(0.81880855863 -0.00197293725088 -0.000162182909763)
(0.748404558823 0.00202602015246 0.000639649599452)
(0.749246059655 0.0018688877768 0.000230019552544)
(0.819054890494 -0.00146387847161 -4.33057070661e-05)
(0.748310435269 0.00230392565143 0.000138994048125)
(0.818912766625 -0.00198799830706 -0.000726816920722)
(0.806244754618 0.0123850788183 0.00210899697066)
(0.808015091531 0.0139720077092 0.000447187632032)
(0.808451284547 0.0170364965349 0.0037331877419)
(0.809649498138 0.0123902437704 0.00218361570995)
(-0.47254821371 -0.0108940584921 0.020653036358)
(-0.2556861019 0.0270929940225 0.0390036194848)
(-0.578641137572 0.0678144625713 0.014426527595)
(-0.274074962269 0.0714939618387 0.0290091172368)
(-0.226683122864 -0.00308227203511 0.0181089241169)
(0.245598125933 -0.0210900332603 -0.306705915477)
(0.395922444141 -0.287425328898 0.0457454708489)
(0.102718292709 -0.121239816287 -0.324368253834)
(0.356706071372 -0.152808731641 -0.381611908921)
(0.144878604016 -0.0770469212095 -0.378426883471)
(0.392502671533 -0.0808810936349 -0.336636586711)
(0.802658345907 0.00394660514512 -0.00545599381878)
(0.803793906536 0.00805354363246 -0.00412201031669)
(0.780269937252 3.69699366418e-05 -0.0122780018249)
(0.780839751872 0.00366250385751 -0.00820756863937)
(0.80232557276 0.010362503527 0.00320902969478)
(0.780475724778 0.0048691985376 -0.00515545585045)
(0.804328342814 0.0109661031741 -0.00235748231113)
(0.806808430123 0.0124074430315 -0.00133059981912)
(0.782505453015 0.00337214884572 -0.00754703415626)
(0.784905516953 0.000294426469767 -0.00379195523159)
(0.80270069423 0.0166376375734 0.00707737142597)
(0.807093582777 0.0137880441815 0.000864351629137)
(0.80679617215 0.0161050247066 0.00483381974967)
(0.781791088587 0.00438466888912 -0.00485373801135)
(0.7678699996 0.00613367425095 0.00656916221406)
(0.783768392088 0.000268627489214 -0.00259076573529)
(0.771547156858 0.00175143754031 0.00349531112919)
(0.80724950644 0.0187490486553 0.00747797969483)
(0.808532461165 0.0229910347672 0.0102303421823)
(0.763585369833 0.00704314096956 0.00859352117978)
(0.752523144564 0.00955461603374 0.0136741639112)
(0.767268380055 0.00188635839725 0.00455835935411)
(0.755172581993 0.00536312161959 0.00731356738589)
(0.808633746857 0.0148514477166 0.00187157521006)
(0.809812070406 0.0134962733916 0.0017959043594)
(0.783382497154 -0.000815804495741 -0.00251147210365)
(0.772119575906 8.37015532172e-05 0.00187825610973)
(0.772310799468 -0.00188307743426 0.0040696874344)
(0.809745670089 0.0178852615038 0.0049883828418)
(0.809123624237 0.0144414838183 0.00253620718364)
(0.809779847159 0.0149919570596 0.00287753756963)
(0.767828642292 1.16593692117e-05 0.00275677131087)
(0.755902706176 0.00330343782804 0.0059121095097)
(0.76917841173 -0.00253219486576 0.00367566355229)
(0.759466037446 -0.00124021517365 0.00428718427036)
(0.769274073351 -0.00215989059696 0.00394271951439)
(0.760537817764 -0.00149346767625 0.00383194823494)
(-0.331697007988 -0.0612660474568 -0.019262015889)
(-0.342973928141 -0.0854351525862 -0.0106766741319)
(-0.42344618172 -0.0729240874188 0.0123487313238)
(-0.197029791749 -0.0918558050715 0.0424896378135)
(-0.0170661621399 -0.0438706351496 -0.159247898293)
(-0.199018350822 -0.106284141137 -0.0176438127691)
(-0.0317274742448 -0.0480916715712 -0.24719676752)
(-0.0397338845319 -0.123356610188 -0.420427763717)
(-0.0259737545523 -0.197707275601 -0.411111101159)
(-0.0711892251116 -0.0952027546376 -0.453995101214)
(-0.0127267801749 -0.146277585492 -0.441897437468)
(-0.386407554411 -0.0650587296285 -0.000746855998117)
(-0.479306617429 -0.0103933744773 0.004866987103)
(-0.431284578464 0.0176250624136 0.0331649882222)
(-0.526460629334 0.0592069370585 0.0194096803384)
(-0.454564842396 0.0819064492945 0.0298962087956)
(-0.179917169331 -0.124986680868 -0.0710359828934)
(-0.0573334021469 -0.0717015106487 -0.291598467789)
(-0.161503994495 -0.137734656154 -0.0829046297057)
(-0.0414159762613 -0.0909661725356 -0.258150047979)
(-0.0500247064455 0.00335553122807 0.0335715101255)
(-0.267851961495 0.072988575966 0.0354935641399)
(-0.0774734362299 0.0476533377905 0.0305045575094)
(0.0340807469878 -0.102101181389 -0.405275997686)
(0.170633801471 -0.122744697369 -0.349451306764)
(0.0670482780956 -0.0787864750162 -0.335616543806)
(0.199986949439 -0.00617228778113 -0.289236518247)
(-0.464604194364 0.0738939957622 0.0254259105111)
(-0.402769087985 0.0248991347674 0.020781064941)
(-0.0985735042231 -0.121759014668 -0.0639043181207)
(-0.00753770350123 -0.0882001496228 -0.195287822177)
(0.0227806804547 -0.0818449103649 -0.194969381811)
(-0.0835167718703 0.0670261728319 0.0256209771878)
(-0.253615380032 0.017593987341 0.0220408053872)
(-0.0966539570357 0.0330022613329 0.0185925086243)
(0.105572461964 -0.0739133382531 -0.249606642411)
(0.24312103493 0.019625463792 -0.226184398047)
(0.143579894394 -0.0709751346688 -0.194717987736)
(0.27243003972 -0.0337754727656 -0.163127681825)
(0.809618920601 0.00639136136731 -0.015673820924)
(0.810256945668 0.00419456215672 -0.0136469373863)
(0.781743695769 -0.000514746909014 -0.0139894606527)
(0.779796621531 0.00188197900876 -0.0116555683038)
(0.810766508752 0.00741508253913 -0.0129929515544)
(0.78112870147 0.00127168824004 -0.0133646219115)
(0.809137949695 0.00352788537155 -0.016509210113)
(0.810174368231 0.00862524698475 -0.0131227141096)
(0.811779059952 0.0109767262496 -0.00842717672072)
(0.780761667868 0.00269214448567 -0.010135527525)
(0.781874893565 0.00304688575407 -0.0100923363179)
(0.81139266515 0.00959969510632 -0.0104525741769)
(0.810618763024 0.00980590134377 -0.0114097185956)
(0.781809957921 0.00221702650596 -0.0117664052672)
(0.809653245623 0.0105132345096 0.000953041827529)
(0.810764286913 0.0107544941032 -0.00503554521489)
(0.780175078718 0.00398012811559 -0.00709693522776)
(0.776098242743 0.00544925631485 0.000461423748564)
(0.810398697255 0.00960088091089 -0.0062814502652)
(0.810664366902 0.011995743642 0.00237776686753)
(0.776197118586 0.00453682976466 -0.00133941310576)
(0.811528694425 0.0114869886833 -0.00783466866356)
(0.812576548789 0.0117140668422 -0.00656485115819)
(0.783314838588 0.00287242352842 -0.00923725076459)
(0.783205078042 0.0025891406841 -0.00546413704514)
(0.811093386832 0.0108223290106 -0.00956099224003)
(0.812917822825 0.0120750723571 -0.0046892984817)
(0.784055506465 0.00246826740195 -0.00725685158292)
(0.811927850082 0.0117344539312 -0.00660833844971)
(0.813351439001 0.0123918966613 -0.00289075252637)
(0.784221433421 0.0017045448783 -0.00505415384429)
(0.785167426126 0.000770079358185 -0.00531474591422)
(0.813127030517 0.0122013062893 -0.00385104100045)
(0.812323482758 0.0119952638045 -0.0054947841077)
(0.784755919783 0.00170553002492 -0.00639906369749)
(0.812348366335 0.0125225951522 0.00308178401367)
(0.811122375001 0.0117410475776 -0.00369931457424)
(0.777446783524 0.00489268707183 5.31789206737e-05)
(0.782438944804 0.00318313714407 -0.00310135472427)
(0.811793856045 0.0126380708225 0.00270384021856)
(0.811507764176 0.012152299533 -0.00224253309547)
(0.778285464448 0.00373021252382 0.000775146082115)
(0.810611654351 0.0133560323024 0.00526951701049)
(0.808738865762 0.0134952630512 0.0106850573719)
(0.773683396993 0.00539951637144 0.00219610346183)
(0.768620646247 0.00517098453893 0.00691418931173)
(0.809777869885 0.0137042414057 0.00485012243823)
(0.809595694094 0.0136948648416 0.0106115251072)
(0.774601941587 0.00404369242284 0.00365587382518)
(0.812578417935 0.0124652896618 0.00149578817551)
(0.812143822486 0.0124762679715 -0.00142157694178)
(0.783307722327 0.00190279968351 -0.00328935739826)
(0.780535078978 0.000634010983846 -0.000682300530886)
(0.811843804116 0.0122318546385 -0.00211558983465)
(0.812692780929 0.0127833205953 0.00138143240496)
(0.779582674406 0.0024252982516 -0.000878975276949)
(0.811113258821 0.0129721224634 0.00307815891787)
(0.810942705374 0.0135733644885 0.006081559906)
(0.770300084241 0.00366453765557 0.00395415408006)
(0.777024994978 0.000556925576423 0.00115423926641)
(0.810385426719 0.0134881457754 0.00719867012623)
(0.811625873374 0.0130168849063 0.00260891202341)
(0.776110676291 0.00243905150903 0.00144037332359)
(0.805760178241 0.0163007192021 0.0160889702283)
(0.80621072658 0.015701423519 0.0124224853986)
(0.758355855091 0.0083499427275 0.011837015555)
(0.764634098043 0.00575292267022 0.00820730479199)
(0.804006827203 0.0172881518093 0.017299646385)
(0.807662199723 0.0149137302775 0.0116362706956)
(0.759774731035 0.00748865184635 0.0124203516861)
(0.804369841568 0.0184912272912 0.0161523392451)
(0.803835390679 0.0213038530645 0.0186276194515)
(0.754725352182 0.00880453240277 0.0119295264131)
(0.752982662834 0.00891831696129 0.0126189350948)
(0.802695818077 0.0195169076167 0.0171494955932)
(0.755157300639 0.00819483001586 0.0116462227878)
(0.805492974424 0.0201474900837 0.0168755823732)
(0.807158751076 0.0153528541415 0.0116280581993)
(0.809799259435 0.013789298848 0.0068581239252)
(0.766279315782 0.00407058367948 0.00576716045727)
(0.762615544971 0.0034581758268 0.00712396367381)
(0.808994276159 0.0142161793673 0.00811008099377)
(0.808296208153 0.0148475574105 0.00956524905121)
(0.761066944319 0.00571136153457 0.00868528310107)
(0.806296806229 0.0170979308261 0.0111754223581)
(0.808141528696 0.0168592181376 0.00896842455115)
(0.754013534238 0.00768433179429 0.00923138119654)
(0.757854934782 0.0046612692765 0.00654716730934)
(0.807480792935 0.0161436761953 0.00918758035341)
(0.756743066735 0.00685394532206 0.00833795689386)
(0.807251987823 0.0184816355593 0.0114412829408)
(0.813103945559 0.0131299576769 0.0016180231996)
(0.812618651787 0.012715787866 -0.00136229777322)
(0.78059299047 -0.000645625147345 -0.000937601700214)
(0.783215892285 -0.00130847870258 -0.00147183597271)
(0.812841468346 0.0130922973005 0.000855886822298)
(0.813001681006 0.0127380224368 -0.000415151435258)
(0.780597888766 -0.00145905340781 -0.000226124226093)
(0.812121621916 0.0132003208759 0.00217804999196)
(0.811382012729 0.013649571765 0.0042379442086)
(0.777218498983 -0.000922406454307 0.000294347619423)
(0.772678058527 -0.00166457668618 0.00194016962934)
(0.811878236745 0.0130970830916 0.00177720752773)
(0.811558333487 0.0137554704859 0.0040323026778)
(0.777346836648 -0.00230186798135 0.000330152303086)
(0.812398990903 0.0131430955282 0.00290528503879)
(0.811645103743 0.012895666551 0.00548009984236)
(0.772626156032 -0.00208606310401 0.00277062987923)
(0.776856372427 -0.00211656373391 0.00255813964884)
(0.811731119251 0.0136211455732 0.00452665590916)
(0.812642463098 0.012582320969 0.00385119936925)
(0.777011771971 -0.00260738232329 0.00133281271031)
(0.809601729186 0.0138994786598 0.00619460645241)
(0.81049037548 0.0136302940372 0.00469685129754)
(0.763350905533 0.00165820617289 0.00503426858178)
(0.768373860386 -0.00208378289778 0.00223370029878)
(0.80916339656 0.0143241574645 0.00682918074547)
(0.81081582514 0.0135252522608 0.00441205355298)
(0.764441973087 -0.000959442126672 0.00442981168551)
(0.80867510927 0.0143060586405 0.00595542725887)
(0.808855582368 0.0155293660983 0.00660461582148)
(0.758886021108 0.00267438960495 0.00479337788653)
(0.757007610098 0.000837253103651 0.00488274467172)
(0.808395130117 0.0151603213403 0.00671708099467)
(0.759607219823 8.14908003006e-05 0.0038750439605)
(0.809002128537 0.0143954941689 0.00567556072594)
(0.809987772004 0.0134901879222 0.0056320857117)
(0.810901080733 0.0125765239054 0.00524484090395)
(0.768835371038 -0.00281281462536 0.00276167309352)
(0.765413611484 -0.00199465691172 0.00517692993042)
(0.8109580882 0.0133080754287 0.00447892458747)
(0.809835089143 0.0125865286706 0.00612085848206)
(0.765098452523 -0.00186986379268 0.00430867856878)
(0.808995330072 0.0136937345748 0.00517822329228)
(0.808825196793 0.0123586483713 0.00469079930765)
(0.758319354266 -0.000591109946085 0.00448097080994)
(0.761933440561 -0.00155714176811 0.00416770475864)
(0.808972319684 0.0128367006866 0.00561649207451)
(0.761174328004 -0.00114958843916 0.00389699758775)
(0.809117989717 0.0135092101568 0.00478865250673)
(0.80967758219 0.0108956665016 0.0061069406671)
(0.81092015663 0.0118171133781 0.00525538926623)
(0.765791731289 -0.0019716495601 0.00491852935708)
(0.768977555311 -0.00120204601038 0.00440951231355)
(0.809787806943 0.0116726978598 0.00582459707448)
(0.810814154744 0.0112419047786 0.00565513433109)
(0.765752261779 -0.00113864601616 0.00528059441099)
(0.808632323373 0.0114759274448 0.00406580103679)
(0.762697685015 -0.00155344518418 0.00398693656237)
(0.809028826887 0.0120004612901 0.00522587242502)
(0.816956484017 0.00445109759288 -0.00091410079729)
(0.818778784598 0.00330561740155 -0.000892198155936)
(0.819594665988 0.00166999041601 -0.000779587600061)
(0.817224471057 -0.000740345133801 -0.000159100220407)
(0.809854991254 -0.00194094792197 0.000422605980755)
(0.834974887531 -0.0513084420998 0.000722223558823)
(0.81742922688 0.00466056515811 -0.00116215074867)
(0.819119907163 0.0032969624481 -0.000629151325677)
(0.820106734512 0.0024580967776 -8.25240644583e-06)
(0.818277081485 -0.000852193113399 0.00199141806955)
(0.810885980678 -0.0027207484225 0.00487739959622)
(0.83926703129 -0.0577660112493 0.00619230875251)
(0.816147972625 0.0062232299572 0.000624593921179)
(0.811554892178 0.00657421872819 0.000651390661315)
(0.788280019809 0.0108959212135 0.00237868052009)
(0.784062876433 0.0114630838385 0.00200332536135)
(0.780479281435 0.0125472479221 0.00269966497804)
(0.772316443903 0.0162696878119 0.000131276808191)
(0.781398785382 0.0198568136685 -0.0244415741954)
(0.714058989836 -0.0130239660182 0.024446822652)
(0.826553061368 0.00520982428619 0.000198219480312)
(0.8236865581 0.00342094849088 0.0001757268572)
(0.819579070764 0.000696162812212 -0.00124796472186)
(0.81778381345 -0.00095278724471 -0.00325957589483)
(0.816550650705 0.000325824941051 -0.00355407188887)
(0.817730704096 0.0034536914502 -0.00280036351672)
(0.810139896008 0.0107811524178 0.0004421106621)
(0.841086477259 -0.0838863231203 0.0125066472876)
(0.820277233017 0.00580501917602 -0.000418678005886)
(0.822117854983 0.00437926758672 -0.000809663942293)
(0.822328688278 0.00351664849619 -0.00136054099647)
(0.821767889952 0.00316337721578 -0.00222351164833)
(0.820467666562 0.00301347704864 -0.00208347294723)
(0.820334199215 0.00248714854677 -0.000683812216075)
(0.812126174681 0.00119519091606 0.00149707394251)
(0.844323757678 -0.0664922517624 0.00457547578402)
(0.816407184954 0.00675055725845 -0.000917946016011)
(0.819271524096 0.00399044913313 -0.000690914585889)
(0.820426771225 0.00229596436649 -0.000925009528372)
(0.820573523995 0.00115369405453 -0.00112290985926)
(0.819721759159 0.000767278825897 -0.0012014164725)
(0.819618247238 -0.000173031177095 -0.000336820819604)
(0.81141672159 -0.00139068716489 0.0012680746598)
(0.839867261157 -0.0694101405789 0.00301246071488)
(0.81906471377 0.00137681665789 -0.000788645714319)
(0.818660426206 9.81342324692e-05 -0.000231869361723)
(0.810591761844 -0.00155496305551 0.00075710160732)
(0.837866425563 -0.0546207859884 0.0014389596978)
(0.638648837591 0.0424887857151 0.0137571646377)
(0.634171479882 0.040368403105 0.014038077776)
(0.644277021511 0.0254979583069 0.0191236241928)
(0.642079843172 0.0223353402964 0.0165811477313)
(0.638946650165 0.0230279838078 0.0161055015243)
(0.603925991326 0.0257947915853 0.0188293558258)
(0.678911866256 0.0379296564945 0.0191026622622)
(0.218128676672 -0.0579261729832 0.0609162324426)
(0.774044741647 0.012751179827 0.00888392098066)
(0.768672391592 0.00985684006437 0.00854712172166)
(0.774513772468 0.00293507593782 0.0112002768033)
(0.772419587049 0.00239948611074 0.0132808278768)
(0.771479691837 0.00479156380228 0.0145007503028)
(0.772898519831 0.00804564839092 0.0185373501053)
(0.774498899956 0.0443178084148 0.0294582143543)
(0.81106509108 -0.174632065209 0.0476894408154)
(0.821569418965 0.00629970806349 3.45342667724e-06)
(0.821426738276 0.00503783588867 5.34682696911e-05)
(0.82122229709 0.00540461199315 9.01066361323e-05)
(0.82130520809 0.00650997294754 0.000351128525206)
(0.821263330723 0.00705534407758 0.00177230868629)
(0.823416330902 0.00626894379279 0.0047641752238)
(0.816976850284 0.00356970984072 0.0123192459552)
(0.883188193611 -0.118170553995 0.0173518484956)
(0.81679129774 0.00605631067241 -0.000774172758461)
(0.819503526879 0.00415242675488 -0.000585831051602)
(0.820640208156 0.00292115048163 -0.0002122247515)
(0.8206525871 0.00239154862539 9.14258687197e-05)
(0.820326212668 0.00182869808525 0.00112935745864)
(0.82209831487 0.000326472742224 0.00386844704301)
(0.815036893831 -0.00193479289644 0.00888187543344)
(0.854878411358 -0.0874246353953 0.0124914849003)
(0.819615450823 0.00192863051232 0.000734483398034)
(0.820192971363 0.00018215075211 0.00267502960587)
(0.812417303577 -0.00248247662799 0.00608198168286)
(0.845781658404 -0.0668361341716 0.0078834801709)
(0.633569193319 -0.0145190818983 0.0228044956003)
(0.626570511575 -0.0149189740598 0.0212805665788)
(0.631882726563 -0.0188097558904 0.022898915961)
(0.63330346055 -0.0171743339528 0.0215210528669)
(0.63578813973 -0.013134072123 0.0233841769447)
(0.627297998436 -0.00234772290658 0.0267927542099)
(0.684308401978 0.0524256134973 0.0674887292423)
(0.524552478882 -0.392835210467 0.0165279805361)
(0.734330309019 0.00501359552052 0.0260194446927)
(0.730948541535 0.00055199452835 0.0251001966844)
(0.781984879739 0.00131768807521 0.00909882133256)
(0.781741261946 0.00150087980371 0.0104540740487)
(0.783616247677 0.00323028949419 0.0122873740707)
(0.792642634601 0.00211972532648 0.0122174785029)
(0.804856860399 0.0183477471077 0.013995392171)
(0.904174869825 -0.200931094516 0.00670089470647)
(0.821408142112 0.00466329422747 -0.000495146322759)
(0.822512858208 0.00428042675666 -0.00112575429844)
(0.82278490692 0.00268485253805 -0.0018266852587)
(0.823213825213 0.00201541167717 -0.00165077421295)
(0.824214369923 0.0015532355134 -0.000353356256834)
(0.830601160921 -0.00143674063578 0.000828800907668)
(0.824634699877 -0.00666312503665 0.00133755038182)
(0.914930413596 -0.181892131009 0.00292140171524)
(0.812669011471 0.00975517581604 -0.00119234078462)
(0.816237844634 0.00544183550693 -0.00213077436553)
(0.819971506784 0.00309653983463 -0.00224939275334)
(0.821906901087 0.00218397601096 -0.00186537569349)
(0.822336855692 0.00131827540398 -0.00164990197612)
(0.822803446423 0.000368539769551 -0.000484509038736)
(0.826891596652 -0.00239847026548 0.00115471246879)