/*--------------------------------*- C++ -*----------------------------------*\
| =========                 |                                                 |
| \\      /  F ield         | OpenFOAM: The Open Source CFD Toolbox           |
|  \\    /   O peration     | Version:  v1906                                 |
|   \\  /    A nd           | Web:      www.OpenFOAM.com                      |
|    \\/     M anipulation  |                                                 |
\*---------------------------------------------------------------------------*/
FoamFile
{
    version     2.0;
    format      ascii;
    class       volScalarField;
    location    "4.35";
    object      alpha.water;
}
// * * * * * * * * * * * * * * * * * * * * * * * * * * * * * * * * * * * * * //

dimensions      [0 0 0 0 0 0 0];


internalField   nonuniform List<scalar> 
28582
(
1.00000017236
1.00000017516
1.00000012968
1.00000000858
1.00000077601
1.00000078212
1.0000059843
1.00000461841
0.0242657069691
0.0270509737832
2.235154912e-06
1.00000581593
0.939121836282
0.93617047508
1.00000444527
1.00000695183
0.935989643008
0.999855687206
0.999875435917
0.999999858079
0.999999188207
0.999998248588
0.999999581913
0.999999351421
0.999999025739
1.00000088297
1.00000151538
1.00000712489
1.00000353892
0.0295008396713
1.38797134908e-06
4.51562237614e-06
1.00000701431
1.00000761472
0.941986088327
0.937864400485
0.999968948691
1.00000164823
1.0000049163
1.0000040141
0.999807626657
0.91783800025
0.999821744976
0.999755259274
0.0247231715711
0.027308640621
9.23054910108e-05
0.000115125768796
0.0255209841332
0.000115779454511
0.999928750913
0.99991405888
0.937396425882
0.937524300597
0.999917292182
0.936283719813
0.99992303175
0.999916121281
0.999933884132
0.936700009417
0.935518997337
0.99992182687
0.93582003942
0.999927515963
0.999917674413
0.999933932435
0.935240687357
0.935422387518
0.99993166036
0.935122557233
0.999934873382
0.999893147707
0.932440010784
0.932807155012
0.999902334853
0.934105760128
0.934249464629
0.999928146055
0.999872474718
0.93280300113
0.932801428097
0.999893512356
0.933235679428
0.999893835654
0.93387744425
0.0236092234978
3.41049718305e-05
0.023630120422
0.0242105733928
2.99529138788e-05
3.07807331662e-05
0.0293597300529
0.000150845770595
0.000159101100608
0.0323369543883
0.000255956965678
0.0326992065228
0.000257396012596
0.999937821461
0.999980017593
0.940242436799
0.945021589452
0.999950701032
0.999970202997
0.943304492363
0.999918839306
0.999899404091
0.938970170042
0.940258613534
0.999923848011
0.999914332352
0.941801465697
0.944489708545
0.942468004934
0.999954809585
0.999959299257
0.9416946314
0.999950709287
0.943482844789
0.999841465083
0.930169939752
0.930586773081
0.999755389958
0.926808695473
0.999780481217
0.927907268018
0.999707852105
0.999668347017
0.922592654609
0.919749725803
0.999723223051
0.999660120655
0.924038523497
0.999792175669
0.999838228554
0.93134852363
0.931693201583
0.93000778457
0.999779145573
0.929175355971
0.926957995107
0.92328516432
0.999714886097
0.999745220527
0.921494947029
0.999704128746
0.925587558906
1.00000194502
1
0.0358253774915
4.67158573037e-06
1.00000704017
0.940390388885
1.00000458292
1.00000460907
0.913040937619
0.918667226693
0.902310502213
1.0000052069
1.00000754501
0.897305745156
0.889106570978
0.0242027025304
0.0352981714848
0.0378730858066
0.000347513870928
0.000335003113347
0.000413739701526
0.0399864580901
0.0412483920019
0.999945462916
0.99994067956
0.94002118081
0.938147318476
0.999930229925
0.938232123886
0.999912261272
0.99955749954
0.999616554264
0.907869355178
0.914968829861
0.999542641768
0.999607316094
0.910288294234
0.999600168458
0.999673807242
0.916934638451
0.913372911528
0.999658111782
0.912105214362
0.999611310619
0.999535559828
0.999501943796
0.901349752489
0.907703442089
0.999453395577
0.906880862842
0.999561052559
0.999328941937
0.999438586078
0.896409424172
0.893217009906
0.99936824418
0.892117065566
0.999375628463
0.999288304817
0.999337811487
0.887232692541
0.890945067361
0.99927551061
0.889278708121
0.999331605959
1.00001418456
1.00000738013
1.00000700934
1.00000587395
0.024463427444
0.0278734233259
0.0239327042755
0.0286314034999
0.0264923866344
6.83193252447e-06
2.75135018108e-05
5.99758061891e-06
2.14031903328e-05
3.84261682439e-06
2.0739419709e-05
1.00000890003
1.00000850361
0.960638334322
0.959529684323
1.00000943954
0.960534250221
1.0000061824
1.00000814869
0.960073643199
0.961036295039
1.00001685615
1.00001356073
1.00001743592
0.960085607407
0.952596832556
0.959803435654
0.946860114549
1.00001806404
1.00002033484
0.950984846183
0.94650950342
0.943962156094
0.937217508796
1.00000614782
1.00001016837
0.960732768388
0.946992488871
0.948953399125
1.00000549935
1.00000908171
1.00000839079
0.942925925589
0.935148804184
0.944870294803
0.93822293883
0.946051578462
0.940732251233
0.0241409569041
0.0241385149397
0.0246713329494
2.95654341496e-05
0.000132798626979
9.65102681399e-05
0.000191064728953
0.00029956275063
0.000304422326531
0.000321803956716
0.000285039273689
0.0236011015681
0.0228212161921
0.0263317168281
0.0243753135214
0.0266878962596
0.000133614830215
0.000199832470145
0.000131986872169
0.000200355545461
0.0278112011864
0.0283951827491
0.0287524576365
0.000298349015739
0.000278493192278
0.000305526605967
0.000304397767
0.0265728194904
0.0260681954951
0.0001075691116
0.000184409753955
0.000162067939931
0.0290279526096
0.0279186020532
0.0282566406153
0.000295822113278
0.000319036981905
0.000244706100189
0.00029394807219
0.999981663202
1.00000243258
0.96021860174
0.960046505656
0.99998001064
0.95959805828
1.00000489111
0.999954766099
0.999966041594
0.959644867099
0.959053949103
0.999951007568
0.999968278815
0.959208597096
0.999960023458
0.999970257304
0.960521309097
0.959788747518
0.999953565605
0.999976992263
0.961369713009
0.999936135748
0.999954749826
0.959155703553
0.960406744875
0.999955356602
0.99994036724
0.959507306138
0.999954107179
0.999969887204
0.960705343076
0.961083219375
0.999956804213
0.999964274679
0.960172230514
0.99995781906
0.99996907392
0.958775101913
0.959614908719
0.999971871203
0.999950661788
0.957374971639
0.999948157185
0.999978596252
0.955180809848
0.951347366827
0.999978620047
0.999929187676
0.954484451641
0.999961732856
0.9999711302
0.959136310713
0.956899749264
0.999962748022
0.999972241292
0.956353948768
0.999959709234
0.999923892419
0.948836851893
0.951675858484
0.999935800351
0.999951730867
0.952743140248
0.99991041295
0.999953730877
0.949000753266
0.947145365549
0.99993441088
0.999916346784
0.945078380509
0.999911811483
0.999925121571
0.947231120709
0.944104214285
0.999935747799
0.944907376458
0.999925462844
0.999868593051
0.999891588984
0.943726050269
0.941136803285
0.99988347035
0.999888584627
0.941412995058
0.999877601204
0.999877935815
0.941375218507
0.937909043297
0.999885548465
0.941630530568
0.99987821785
0.999982778282
0.999995096641
0.957954124546
0.96098839894
0.999976993369
0.999984497365
0.958717691663
0.99997177022
0.999931933093
0.952347734364
0.948767665709
0.999951083944
0.999941004023
0.954152049319
0.999962335916
0.999951221747
0.949404538338
0.953804411987
0.999937150245
0.999973923535
0.954579605368
0.999885929559
0.999896941271
0.939368566147
0.94227255047
0.999842363508
0.999876609094
0.937043280654
0.999865451612
0.999867903212
0.93568114712
0.937013159613
0.999846584333
0.936935964971
0.999867464744
0.999891891709
0.99992701728
0.943579595495
0.942197693591
0.999906668722
0.999898087504
0.938192949054
0.999866319901
0.999894682819
0.938194357801
0.939743590485
0.999895718377
0.937971574797
0.99987253175
0.999930774235
0.999934916148
0.944272565795
0.947703103745
0.999903946674
0.999931810686
0.945201038718
0.999911803976
0.942600043089
0.999906473824
0.999999413591
0.999999406368
0.999999732671
0.999997381003
0.999995185496
0.999994698004
0.999999598104
0.999999811796
1.00000015338
0.999998801696
0.999998278323
0.999997488725
1.00001478554
0.999991035345
0.999928637292
0.999935844852
0.999964318868
0.999987432897
0.999994757293
0.999994760432
0.99999332379
0.999991739952
0.999992688401
0.999992022073
0.999983569752
0.999983196039
0.999991031773
0.999997821556
0.999996221136
0.999997175819
0.999996782232
0.999997318825
0.999998172995
0.999998194955
0.999997902535
0.999998360643
0.999996046308
0.999997853464
0.999999125551
0.999999210109
0.999999627937
0.999999536817
0.999999158755
0.999999358292
0.999999516512
0.999999137692
0.999998565331
0.999999079782
1.00003891475
0.999981288447
0.999652514215
0.9999116566
0.999991192892
0.99999731058
0.9999972315
0.99999545084
1.00001858851
0.999959751198
0.999855300148
0.999937792564
0.999992121494
0.999998297712
0.9999977449
0.999998646112
1.00000018992
0.99998455594
0.999983752515
0.999991317973
0.999997776585
0.99999875975
0.999998701842
0.99999944871
0.999999074095
0.999999415985
0.999999836513
1.00000003795
0.999999865113
0.999999280125
0.999998960116
0.99999963471
1.00000030895
1.00000029842
1.00000033932
1.00000140297
1.00005897569
0.999768573994
0.999806477753
0.999980535971
0.999999661134
1.0000021058
1.00000176308
1.00000065157
1.00005059433
0.999986584202
0.999933549756
0.999981993779
0.999999335431
1.00000032975
1.00000125776
1.00000137563
1.00000318517
0.999997750492
0.999994970874
0.999996776784
0.999999301068
0.999999964929
1.00000062626
1.00000167312
1.00000025812
1.00000018776
1.00000027442
1.00000058842
1.00000077315
1.00000045872
1.00000027177
1.00000074298
1.00000160147
1.00000082576
1.00000104926
1.00000111506
1.00000123745
1.00000155779
1.00000206772
1.00000271268
1.00000279978
1.00000335474
1.0000033761
1.00006899464
0.999954617671
0.99985469483
0.999997631717
0.999999877882
1.00000047949
1.00000210474
1.00000785052
1.0000125882
1.00000959553
1.00000743407
1.00000503085
1.00000480895
1.00000481047
0.999999646173
1
1.00000907704
1.00000485764
1.00000313287
1.00000125786
1.00000139921
1.00000330691
1.00000496275
1.00000427735
0.999998003564
0.999993351277
0.999999737134
1.00000694968
1.00000526729
1.00000269603
1.00000344071
1.00000491423
1.00000190326
0.99999701694
0.99999375017
0.999999664047
1.0000059669
1.0000068849
1.00000482784
1
0.999995196929
0.999995741488
0.999998943353
0.999997373366
0.999998155351
0.999999494508
0.0238410903088
0.0239537770247
0.0241466593718
0.0257218716504
0.0318675562575
0.0392572788603
0.0425927245507
0.0452981240491
0.0270955350609
0.0256603468466
0.0234766021185
0.0226265799399
0.0232016866925
0.0252235658555
0.0326071803042
0.0399802546488
0.0420877583951
0.043780550962
0.0287871416183
0.0275853972909
0.0260414496364
0.0245147176184
0.024059554629
0.0266973726351
0.0335575590493
0.040283862213
0.0426462971069
0.0446052650408
0.025883647082
0.0256722689806
0.0260565429915
0.0255422155422
0.0276611819293
0.0346331878868
0.0409394558919
0.044003505859
0.0463524172655
0.0248000832264
0.0256984618827
0.0293251635408
0.0360753076347
0.0415135808588
0.0448400836292
0.0461435794981
0.0406719654585
0.0433744710407
0.0443383514112
7.56832018149e-06
1.5655608162e-07
5.99167335809e-27
-5.06026933944e-28
-4.04661926264e-26
5.67412704922e-07
1.21469449985e-05
1.44519351189e-05
9.82372405083e-07
6.12770258375e-05
6.11988577659e-06
1.15326104284e-06
7.51182020997e-08
7.98426596487e-09
2.25267846472e-09
1.70907324272e-06
1.57691671473e-05
1.14474542127e-05
7.38806924256e-07
6.8021001741e-05
1.38789636014e-05
3.7842011015e-06
1.10153985807e-06
5.18990878754e-07
3.8433262782e-07
1.95160276441e-06
1.5987467734e-05
1.03321844279e-05
-1.32348898008e-24
4.72775355108e-05
3.14334459859e-06
1.10017650681e-06
5.85133546197e-07
1.12795950456e-06
3.02662949572e-06
2.06835118378e-05
1.14755686459e-05
5.29395592034e-24
4.58177439065e-05
7.46727934209e-07
1.92930596979e-06
8.79169245652e-06
2.7139561927e-05
6.21485945912e-06
1.70654344088e-07
7.41993431896e-05
1.39391217422e-06
4.51650610481e-07
8.48327453276e-05
1.00000453449
0.999997114275
0.999988066936
1.00003363035
1.00000639989
1.0000179369
1.00000089933
0.999980397093
0.999985542183
0.999992114908
0.99996206262
0.999857685898
0.999943278277
0.999874247477
0.999985072929
0.999993390344
0.999989541694
0.999994735909
0.99998225165
0.999994748407
0.999994171081
0.999991930225
0.999993622776
0.999994606822
0.999974682093
0.999969964135
0.999990096358
0.999988277636
1.00000726877
1.00004382473
1.0000098848
1.00005584194
1.00001324162
1.00004245728
0.99999036153
0.999824095102
0.999949141808
0.999690247826
0.99990832878
0.999597649158
0.999658652154
0.999533300215
1.00000180003
0.999986748163
0.999985886415
1.00003855926
1.00001064585
1.00001223216
1.00000344705
0.99985271694
0.99998747525
0.999988436956
0.999977692244
0.999762991485
0.999992343004
0.999978139511
1.0000058169
1.00004365073
1.00000585465
1.00004983654
0.999999095391
1.00006396764
1.00001187836
0.999512329085
0.999876792359
0.999539519509
0.999709392498
0.999556461795
0.999900589094
0.999781369712
1.00001664218
1.00001999788
1.00000789912
1.00003859959
1.00001483833
1.00000909878
1.00000635345
0.999809063552
0.999998283385
0.999975198265
0.999990340038
0.999948028962
1.00000429491
1.00000282804
1.00011745242
1.00006957404
0.928891659859
0.931571391124
1.00002322788
1.00004533169
1.00001978138
0.928838866124
0.930118160015
0.932583007648
0.933830413583
0.99981860869
0.999997145996
0.999959634348
0.930996839318
0.932959229697
0.934113316222
0.934676619029
0.999957668113
0.999957019247
0.999976689259
0.93330769852
0.934578772369
0.934855615879
0.935769180369
0.999998922384
0.999997842927
1.00000055148
0.935012923198
0.936173091796
0.936136188883
0.936521107116
0.999997981874
1.00000133045
1
0.934120259524
0.911386449694
0.933204119294
0.90870571724
1.00000613147
0.999995827563
1
0.90045999923
0.875468822324
0.897865545426
0.874243836734
1.00000622241
1.00000873599
1.00001471427
0.876532707301
0.880149364717
0.875217705084
0.880927255566
1.00001100925
1.00001544362
1.00001794323
0.884407097925
0.884655014359
0.885988061158
0.885252623755
1.00002008386
1.00001976171
0.945665009151
0.934763919666
0.937580016402
0.932969582414
1.00001079058
1.00001485987
1.00001266569
0.931451356479
0.930467811614
0.93105908735
0.927322457124
1.00000847554
1.00000705391
1.00000583248
0.932382579034
0.935596531075
0.92794834895
0.933120615028
1.00000635332
1.00000425095
1.00000443029
0.935635051743
0.935862336427
0.934724849258
0.936748933894
1.00000547714
1.00000454244
1.00000308422
0.935987426752
0.936694382142
0.936564117182
0.935821243719
1.00000567483
1.00000440557
1.00000426616
0.936939031447
0.936219468361
0.935439667819
0.934137398646
1.00000033656
1.00000245128
0.999999886122
0.932485338987
0.907674596471
0.930326001417
0.905280244935
0.999997507491
0.999996817418
0.999991732516
0.897053596405
0.874544743049
0.895122242361
0.874297152264
1.00000827733
0.999995348572
0.999997894292
0.875374823751
0.881299282805
0.875396891364
0.881506624819
1.00001284617
1.00000357596
1.00000659993
0.886333181903
0.8857384697
0.886421301577
0.884971257601
1.0000019922
1.00000748732
1.00000644364
0.93590096991
0.933088047234
0.938328329784
0.937419891
0.999999472341
1.00000395485
1.00000302884
0.931175669466
0.927172738983
0.935394009917
0.931599059789
0.999999349806
1.00000129111
1.00000013409
0.927056748532
0.930742717254
0.930599084667
0.928458819455
1.00000181577
0.99999971224
1.00000021494
0.932353597213
0.933873031177
0.928581988087
0.92889551201
1.00000561203
1.00000358913
1.00000591486
0.933992188349
0.934743170581
0.929881352533
0.932677914794
1.00000732685
1.00000917658
1.00000960425
0.934554323638
0.933430842833
0.933304363243
0.931729667375
0.999999970882
1.00000576734
1.00000155647
0.929560255631
0.904534541452
0.92686531391
0.900938112417
0.999992889556
0.999998786809
0.999992823374
0.894566864421
0.87430760204
0.892036952911
0.873690890977
0.999996994195
0.999995750995
0.999998350582
0.875535712491
0.881265425916
0.874877167355
0.881264801128
1.00000280785
1.00000364187
1.00000626474
0.886066992176
0.883568586445
0.885188109505
0.881878849469
0.940433863476
0.939502430589
1.00000646169
1.00000764904
0.937522947524
0.933954261092
0.940576120997
1.00000340327
1.00000622036
1.00000491352
0.93256641277
0.929263582904
0.939156092906
0.935774362828
1.00000227636
1.00000317934
1.0000029737
0.929000874932
0.928570863047
0.934954629493
0.931681608073
1.0000064845
1.00000331403
1.00000550785
0.929433637492
0.932431750364
0.930411467726
0.930972765525
1.00000536076
1.00000821144
1.00000791098
0.933090949579
0.930535689282
0.930531884105
0.922452919873
0.999998431222
1.00000255406
0.999998993271
0.925249899
0.899022777222
0.916578627437
0.893478222991
0.999994024382
0.999997022611
0.999993729112
0.890690878479
0.874573605597
0.888170564399
0.878412958715
0.999997149246
0.999996018742
0.999999160428
0.875527832257
0.881558871
0.878778125048
0.882906192467
1.0000017808
1.00000281224
1.00000446275
0.885160173598
0.881216059241
0.885633916139
0.880893551698
1.00000492759
1.00000574994
0.937215362257
0.93349400382
0.935706337105
1.00000665234
1.00000624407
1.00000726031
0.931365814683
0.929864548584
0.935105564279
0.931644732156
1.00000274677
1.00000546479
1.00000188935
0.928993967064
0.920332195312
0.929436700591
0.916727135498
0.999997521985
0.999999051675
0.999996662709
0.914737130748
0.893529862281
0.911552983596
0.896394061179
0.999997068442
0.999996734579
0.999996102464
0.888995020462
0.880038429323
0.892935661131
0.884137837312
0.999996971242
0.999997297526
0.999998694246
0.880151141657
0.883219525874
0.884194980973
0.886041045067
0.999999964913
0.999999979241
1.00000199196
0.885911916514
0.881802021643
0.889277910084
0.879846167865
0.99999765076
0.898088197093
0.999998239072
0.894268399459
0.884625266267
0.999998239477
0.884933900488
0.886874522429
1.00000139793
0.889702036196
0.879665907251
0.000220388435863
7.63295777276e-05
0.000180549103345
5.22298465017e-05
0.0233220383441
0.0234316215466
4.01355634507e-06
1.623793574e-07
3.18345443712e-06
1.95795406903e-07
0.0241062629039
0.023282038089
0.0233016561583
1.20263468876e-07
2.41776929286e-07
1.6238960848e-07
6.15360152618e-07
0.0239570286865
0.0232629492715
0.0234191259591
2.20104737688e-07
1.69739647493e-07
1.24516499715e-06
1.20300854325e-06
0.0246381106223
0.0237701660661
0.024359121927
5.72470655691e-07
3.73729151692e-06
1.34711244567e-06
1.61471125306e-06
0.0278563836924
0.0255423031533
0.0277854730531
1.13449577709e-05
7.43801637347e-05
3.35088311094e-06
9.09482727354e-05
0.0362015886875
0.0321079176752
0.0365788839707
0.000223351997096
0.000407301057231
0.000254041993398
0.000421152192741
0.041585951071
0.0395682139721
0.0416276838968
0.000478659793084
0.000532728375068
0.000478764182499
0.000528734706916
0.0449882918402
0.0422811922601
0.0444937660758
0.000421656673993
0.000282987709598
0.000423486114268
0.000296026074767
0.0437511542316
0.0443761352699
0.0429126348941
0.000409641598927
0.00120113651957
0.000440429103631
0.00124514276422
0.0263563433651
0.0283099854282
0.0276699851548
0.000179292084226
8.8198633782e-05
0.000227921556945
0.000142596270513
0.0247800969655
0.0269879549647
0.0261535268161
5.14733791979e-05
1.5368718382e-05
0.000102629632488
6.47874406772e-05
0.0225996928505
0.0249820576214
0.0237967434986
1.79432547952e-06
5.69632810143e-07
3.08211549714e-05
1.07069605175e-05
0.0229061266894
0.0229375731892
0.0227733531974
9.3293614129e-07
1.18997783686e-06
2.44257511169e-06
2.02350597496e-06
0.0237992097858
0.0230824465929
0.0238616167199
1.78581537781e-06
2.5420764738e-06
6.0593324447e-06
1.11531537252e-05
0.028063035717
0.0257320507409
0.0286735772792
2.45817357146e-05
0.000122940271965
4.98811347099e-05
0.000141803429862
0.0370496013373
0.0330874793027
0.0373388838605
0.000285947803965
0.000445908746207
0.000294931293236
0.000449458018135
0.0417678961166
0.0401492483015
0.0418874973996
0.00048249140989
0.000515623600511
0.000485918166153
0.000526843433592
0.0440928004623
0.0421324081662
0.0440681448942
0.00041521973513
0.000310506203022
0.000413952810031
0.000309198971636
0.0424858075658
0.0437440496254
0.0426576656701
0.000480167489397
0.0013238127665
0.000494535003003
0.00136386044512
0.0281968636204
0.0280519063357
0.0275223565947
0.000278856000175
0.000202592505427
0.000280930939336
0.00024181179087
0.026851342608
0.026920853242
0.026423620768
0.000139519480393
9.87449400221e-05
0.000176453854378
0.000123153000478
0.0252261547333
0.0262476574357
0.0260410219832
6.20516714317e-05
3.38899218102e-05
9.27377042141e-05
6.28773856604e-05
0.0240448595603
0.0257645307545
0.0252692899225
1.91770198785e-05
1.00261448219e-05
3.94957642299e-05
4.78184863518e-05
0.0248345014312
0.0249597955741
0.0256205245712
1.90509166815e-05
4.728983754e-05
7.94204040128e-05
0.000119256764678
0.0293672780509
0.0271200573624
0.0299658738011
8.45577377294e-05
0.00016399317701
0.000148850120618
0.000208287699764
0.0375425300005
0.0340356939923
0.0377103487013
0.000301810792666
0.000447943380352
0.000326934899432
0.00045592209209
0.0421143324089
0.0405071966351
0.0422781995291
0.000484943550951
0.000528770162722
0.000493728182486
0.00052986094484
0.0445740474285
0.0433223323212
0.0450204341483
0.000394985620919
0.000269096794921
0.00038890952793
0.000243064429456
0.0438327738987
0.0454938196309
0.0448899125366
0.00039496449626
0.00108535730035
0.000350740777541
0.00105997976059
0.0255824342825
0.0244264072339
0.000170431825877
0.000116707356243
8.40743553077e-05
0.0260433917966
0.0246669581967
0.0251933588202
8.77682911331e-05
5.71825373142e-05
6.14375330611e-05
4.03339601615e-05
0.0257645570916
0.0256703311626
0.0256805652881
5.1258935218e-05
7.18257883129e-05
5.22662944347e-05
5.75840466258e-05
0.0261824254672
0.0257508397356
0.0265701667917
0.0001028073129
0.000131689367062
7.96765370278e-05
0.000112050978286
0.0307701415971
0.0286584431898
0.0319588984408
0.000154305883945
0.000206266416062
0.000154380958271
0.000228865210053
0.0381891136916
0.0354838482787
0.0387715402074
0.00033742501608
0.000481336410348
0.000378540901254
0.000523228477242
0.0425320159177
0.04130896489
0.0427956255055
0.000502245406755
0.0005235323069
0.000517566865957
0.000520749777191
0.0453546185701
0.0445282180596
0.0456247994442
0.000375070164387
0.00021704081601
0.000365935885206
0.000222039372717
0.0460600193207
0.0466202733313
0.0459540044436
0.000311887809212
0.00101642760908
0.000345965255535
0.00111720068589
0.0252229552538
0.0247849150184
4.15017887129e-05
4.39955384398e-05
4.78814648861e-05
6.81373692471e-05
0.0268879420697
0.0255068638242
0.0269767069292
3.72498049195e-05
7.52515159483e-05
7.18133035008e-05
9.14223938149e-05
0.0327032434238
0.0295538497036
0.0328963932757
0.000150072146907
0.000270269012634
0.000168432202555
0.000294305372022
0.0391938866553
0.036180105115
0.0390822679416
0.000436510004377
0.000558204290515
0.000445341772431
0.000561812240339
0.0431971506521
0.0412611761774
0.0427994962411
0.00048602006614
0.000470386982481
0.000478306056436
0.000456390262257
0.0456364719069
0.0443906330987
0.0453294934521
0.000384085294218
0.000308154281199
0.000401937389459
0.000373411492694
0.044979342622
0.0452025807085
0.0439660087237
0.000514362380297
0.0013972917704
0.000658381179856
0.00146884839659
0.0385153810206
0.000436219823489
0.0421401375554
0.000427664493525
0.000409993250549
0.000401090851269
0.000372681134708
0.0444994642572
0.000388527912515
0.000391955042846
0.000351159269937
0.000327393479463
0.0429267462067
0.000696028296612
0.00163720058694
0.00053016400846
0.00153940243283
0.999992248464
1.00001449699
0.928646494983
0.930548481804
0.999998460478
0.930441573607
1.0000198316
0.999990390858
0.999929670063
0.931546410901
0.929920614624
1.00000365667
0.999927976511
0.930529772739
0.999979812583
1.00000101823
0.92893408409
0.930470539862
0.99999607415
0.930467543969
0.999983372094
0.999982647025
0.999960143919
0.929318948638
0.931072129986
0.999980464327
0.930590928411
0.999965743901
0.999997733876
0.999926565806
0.9318214385
0.932997643025
1.00000449995
0.999935790956
0.931976600458
0.999999565907
0.999992599165
0.932721009264
0.933399085443
0.999995996839
0.999968600559
0.932195802961
0.999976337716
0.999951980811
0.931865065308
0.931668216894
0.999981691831
0.93220597929
0.999935801698
0.999960314958
0.99991463213
0.932526067027
0.933059133708
0.999942775733
0.93265706162
0.999918332322
0.99999858522
0.999993864335
0.933227627031
0.934382956341
0.999998416386
0.999989877676
0.933571115783
0.999995401821
0.999969943695
0.93395421767
0.934543835512
0.99998245255
0.999977160825
0.933778666716
0.99994014535
0.999915692012
0.933657240736
0.933476960964
0.999941768574
0.933822815376
0.999922829134
0.999945205058
0.999940111561
0.934106675206
0.93451590624
0.999949344108
0.934153250496
0.999936038983
0.999963687779
0.999966481581
0.934163134739
0.935088040321
0.999971550092
0.999965532284
0.934354702776
0.999962723665
0.999947210033
0.934853209018
0.935405292784
0.999957240554
0.999960559132
0.93458820412
0.999940304611
0.999941802726
0.935269891616
0.934896385283
0.999951372795
0.935299367933
0.999933826626
0.999897738585
0.999854948762
0.93566703369
0.936572334766
0.999813677984
0.935769199986
0.99989799709
0.999941512372
0.999932029429
0.935223175963
0.9365288287
0.9999504354
0.999922524782
0.935753783236
0.999909524746
0.999876776821
0.936725381778
0.937258390728
0.999857841643
0.999906014431
0.936402189175
0.99964695786
0.999834121548
0.930020697556
0.934389262058
0.99971489224
0.929889148006
0.999791741428
0.999574493723
0.999630789706
0.921650010311
0.910996779609
0.999445479923
0.921312637324
0.999733289163
0.999749714145
0.999841960242
0.934136273764
0.927831145151
0.999795072611
0.999787817881
0.929180459779
0.999683399086
0.999579946748
0.909988435559
0.918940893033
0.999566272308
0.999700394644
0.920378233846
0.999099976393
0.999491087018
0.889975886241
0.899854227556
0.999282550442
0.889692882822
0.999276578718
0.998912415905
0.998950940496
0.881490042007
0.875250454737
0.998809253531
0.881913472328
0.999060356784
0.999222606592
0.999426534957
0.898984271934
0.88801187615
0.999411463492
0.999230356327
0.888891111427
0.999041998743
0.998952905547
0.874510690061
0.880089232715
0.99890258559
0.999056794405
0.88121729344
0.998872570142
0.998881997153
0.877193926695
0.874844012205
0.998833419533
0.876165859646
0.998910425954
0.998940873374
0.999012699247
0.878136457676
0.880853267624
0.999016937679
0.878528127482
0.998959000747
0.998950948427
0.99891864554
0.874483652963
0.876407981765
0.998912288283
0.998967151486
0.876039856612
0.999021152187
0.9990878165
0.881088055328
0.878096732424
0.999078968842
0.999025134085
0.878592543616
0.999147204932
0.999115489782
0.887623263707
0.884568125279
0.999149098608
0.88795488023
0.999176489867
0.999069926149
0.999241468195
0.875582370464
0.884663645022
0.876038247394
0.999206867758
0.999109809006
0.999183587254
0.999207241891
0.885048449868
0.889358660238
0.999187112964
0.999192543929
0.888457163432
0.999130438069
0.999245402392
0.885232004488
0.87688492881
0.999109257214
0.876407049953
0.999261346709
0.999897477301
0.999925280188
0.943726823434
0.942563954394
0.999930007168
0.940721094445
0.999909705459
0.99990251234
0.999936203058
0.939283557355
0.935308816477
0.999940368581
0.999895702866
0.938342764554
0.999848775202
0.999879409841
0.939588461222
0.937425971316
0.999871450934
0.937897047538
0.999855867889
0.999839793322
0.999849825628
0.934419444517
0.935584037195
0.999819488583
0.999859321034
0.93625034454
0.999849609569
0.999909601424
0.929134808261
0.931022542591
0.999873422386
0.999861710091
0.929331589867
0.999833705008
0.999853104512
0.929489168084
0.929832581408
0.999855797778
0.999816770561
0.929599783174
0.999785183784
0.999831722691
0.93123682012
0.929762296514
0.999793311099
0.99982098232
0.92892626468
0.999788111992
0.999798614924
0.928561026626
0.928488719316
0.999780966949
0.999808404093
0.928725185136
0.999821821392
0.999839274424
0.934049225437
0.931300028976
0.999838107477
0.999808935564
0.932983485152
0.999851861209
0.999945269579
0.935164928473
0.93607219916
0.99986711776
0.999897309207
0.934145966053
0.999797200983
0.999796754213
0.929459685752
0.929045340854
0.999766967494
0.999788536071
0.930771651602
0.999840540473
0.999837696742
0.934663808334
0.93107883266
0.99985959226
0.999800330458
0.932669686829
0.999968931618
0.999989423113
0.935710834222
0.937001067264
1.00000528429
0.999967958624
0.937159497642
0.99997998015
0.999991746327
0.935769456105
0.937089105699
1.00000162621
0.999982746308
0.937061599824
0.99993510696
0.999852428411
0.936291218696
0.93589831367
0.999894372365
0.999866251879
0.937757385107
0.999942153467
0.999890716312
0.938305399053
0.936349186794
0.999954989651
0.999890566026
0.938139489813
0.999982797995
0.999984255509
0.936171037794
0.937222872285
0.999984939343
0.999985872663
0.937398836164
0.999977098251
0.99997194594
0.936402131656
0.937543807423
0.999980728959
0.99996529617
0.93755432966
0.999960823744
0.999895001722
0.938213338216
0.936343783036
0.999952345805
0.999896917511
0.937886031582
0.999954903857
0.999915942192
0.937146671249
0.936250771136
0.999958355349
0.999911675389
0.937486334142
0.99993550374
0.999951310804
0.937326861606
0.937493120759
0.999931565054
0.999957286832
0.937287037938
0.99990800175
0.999859921234
0.937169023083
0.935375621318
0.999897978178
0.999887577123
0.936792014803
0.99992653032
0.999905339023
0.936892220403
0.93538896288
0.999949691478
0.999907706956
0.936743806932
0.99988758472
0.999902140249
0.934915588908
0.935145061622
0.999868777364
0.999914733429
0.936295911227
0.99977801002
0.99981748655
0.926824425022
0.931545842937
0.999754297859
0.99984015705
0.925707214309
0.999694381707
0.999534113736
0.917825054733
0.906711126641
0.999665075356
0.999561825342
0.916785981262
0.99975846908
0.999870296572
0.930967264031
0.924217245264
0.999827367032
0.999807679312
0.924990749642
0.999665362893
0.999555794719
0.906041226011
0.915314957264
0.999530198079
0.999701079702
0.91606570834
0.999239504571
0.99937831412
0.887317086563
0.896332274022
0.999191259698
0.999400473537
0.886983830215
0.999082094572
0.998915742648
0.880060277385
0.874280660253
0.999015062368