/*--------------------------------*- C++ -*----------------------------------*\
| =========                 |                                                 |
| \\      /  F ield         | OpenFOAM: The Open Source CFD Toolbox           |
|  \\    /   O peration     | Version:  v1906                                 |
|   \\  /    A nd           | Web:      www.OpenFOAM.com                      |
|    \\/     M anipulation  |                                                 |
\*---------------------------------------------------------------------------*/
FoamFile
{
    version     2.0;
    format      ascii;
    class       surfaceScalarField;
    location    "4.35";
    object      alphaPhi0.water;
}
// * * * * * * * * * * * * * * * * * * * * * * * * * * * * * * * * * * * * * //

dimensions      [0 3 -1 0 0 0 0];
oriented        oriented;


internalField   nonuniform List<scalar> 
92311
(
0.201817282402
-0.000132141731406
0.000290755249087
-0.201759600924
-0.000216027125352
-0.000176263654114
0.201710263639
0.000983803432195
-0.000700256882875
0.201793566211
-0.000251953845562
0.00029190530439
-0.201742419439
-0.000222914492839
-0.000356806578594
0.201690782945
0.000996696449807
-0.0007130306912
0.201675389392
-9.55050299998e-05
-9.18745569512e-05
0.000258001681823
-0.20169681079
-0.000222962305559
-4.48352153887e-05
-3.32338303826e-05
-0.000128010051956
-0.000153113103572
-7.90549193241e-05
0.201521813705
0.00099766383074
-0.000773713440248
-6.68349706823e-05
0.0504556334902
-1.52022501764e-05
-1.68124886564e-05
-1.95000628162e-05
-1.530531734e-05
-1.3865034549e-05
-0.0504557252717
-1.47580883269e-05
-0.0504399066789
0.0503932055843
-1.70366559864e-05
-2.2531004853e-05
-2.00235712208e-05
-2.19071015751e-05
0.000126328666646
-0.000126208210404
2.73607475215e-06
0.000751972309279
2.15485534611e-06
1.52979212856e-06
1.0096830633e-06
-6.99209707219e-06
-0.000788126784195
-9.01189264157e-08
6.42587633249e-05
0.000604407983864
0.00018873130151
9.61926814029e-07
-0.000656857202993
1.69414885467e-06
3.63180849123e-07
1.04203770579e-06
-5.99806595062e-06
-0.000135502428719
-6.84551846391e-08
-5.46468077283e-08
-7.77215867767e-08
-2.56635104532e-08
1.82394150839e-09
3.18417079881e-08
-1.54689581283e-09
5.34644111335e-09
-1.8003624498e-05
-1.48123026004e-05
-1.28752130224e-05
-1.61097400466e-05
4.95497113758e-05
-6.39322805433e-05
1.21726202725e-05
0.0116954115326
3.67294382866e-05
-1.44510037494e-05
-0.0117112919185
0.0116593195674
-9.34907408984e-07
3.62544091604e-06
-0.0116700651188
2.09269423528e-05
-5.08117412189e-06
-0.000191839835647
-2.91416192907e-05
0.0503532112488
-3.45630741211e-05
-2.598717956e-05
-3.10241449318e-05
0.000199402076375
-9.49485284186e-06
0.0502806326799
-1.23760894726e-05
-6.76326309719e-06
-8.82305694227e-06
-0.0503193745891
-0.000194839743723
-2.31427880613e-07
8.03192595368e-06
0.0116383111042
1.68880239889e-05
-3.8158360892e-06
-5.06778095929e-05
0.0125614125393
4.27874882733e-05
-1.45999603605e-05
-0.012568727267
0.0125533225244
-4.82511468569e-05
-4.58883692162e-06
-0.0125611260223
-0.00010006868361
0.202294231873
-0.000597542240363
0.000469060841278
-0.202065468302
0.201637245718
-0.000227116915317
0.00130410694413
-0.00100373724383
-0.000243202187645
0.201572259408
0.00141529598882
-0.00110695383254
-0.000157955154735
0.202263171224
-0.000545862512075
0.000486820576027
-0.202146040485
0.201634024171
-0.000516467527212
0.00133868711529
-0.000992236438962
-0.000578210526326
0.201627272571
0.0014659982023
-0.00112382973339
-7.05374587109e-05
-6.01195463571e-05
-2.32692882665e-05
-0.000624703319985
0.20218631393
0.000519784212131
-0.202060824715
-2.4626344318e-05
-0.000219077108858
-0.000288384550203
-0.000155847748177
-0.000211494417854
0.201585489579
0.00139959055776
-0.00110466583338
0.050566824506
1.05589370232e-07
-1.4446267707e-05
-1.17147566405e-05
1.53884327549e-06
-0.000296686147838
-0.0505493288857
0.000233092886139
0.050332027219
-0.000260489482056
-4.62517794038e-05
-4.65402748875e-05
-5.67618037431e-05
-6.01575867906e-05
0.000272244352781
0.000250677053592
1.98430174805e-06
0.000525753105259
2.20438635883e-06
1.46185061043e-06
3.89120996085e-06
2.8061674495e-06
-0.000206120335453
-2.43396302071e-09
1.17942529683e-09
-9.19252821048e-09
-4.56613321586e-09
-5.73549526886e-09
-1.35160486618e-08
7.51503802997e-09
2.60685418926e-08
-4.98324763549e-08
-6.42962627971e-08
-1.95830103983e-07
-1.7458710802e-07
3.08616978488e-08
-2.51416885337e-08
6.04660413947e-08
0.000132929227461
-6.47451180737e-06
-2.02171415251e-05
-1.8381128181e-05
-1.41901557484e-05
0.0505797527592
-0.000146768142
1.64872811499e-05
-2.219976183e-06
1.23854587506e-05
-9.86491523278e-07
0.0504775861709
6.93758973991e-05
-0.0504630900786
-1.76716372191e-06
9.44421643589e-06
0.0117114948706
-6.9577370697e-06
1.30784887821e-05
-0.0117229130407
-1.36047564028e-06
1.81435381571e-05
-0.0117043427626
-4.12999196085e-05
3.91278679725e-05
0.0116985371491
1.84799523806e-05
0.0126128189505
-2.70658905614e-05
2.12838641797e-05
-0.0126094009578
-0.000325577071307
-7.31843922531e-05
-9.38708787152e-05
-7.48108594381e-05
-9.10419454891e-05
0.0503770726493
0.000325009631913
0.0502693243642
-2.98111061792e-05
-4.42375791425e-05
-3.36554512277e-05
-4.18100709997e-05
-0.000255646596222
-6.92822078451e-05
-8.34557885418e-05
-6.42177015691e-05
-8.3461429263e-05
0.0503351296134
-0.000302416684346
-5.96856246118e-05
5.1758851395e-05
-2.76081922115e-05
0.0125501610552
-8.3433367461e-06
9.46421440988e-05
-0.0113222908053
1.72700044692e-05
0.0112422944619
-6.76300741407e-06
-5.46312218452e-05
-2.37033958019e-05
0.0125413818297
-0.0125363380143
-7.31212494229e-05
0.0125371373034
7.21073379994e-05
-6.8990587648e-05
0.000701569246755
1.32654339997e-06
-1.30936662475e-06
-9.45375385848e-07
-3.16636250483e-05
8.956332756e-05
1.23612628891e-07
6.77764217577e-07
-8.46911731792e-06
-4.82943171659e-06
-1.04326046145e-05
-2.07881343562e-05
0.000636425667256
0.000244112201666
-0.000682224115816
-2.44180447246e-07
2.16490234094e-07
-3.89589226592e-07
2.78403460066e-07
-5.10877051057e-07
1.65391357547e-07
5.15480182711e-08
3.41632338573e-07
7.03747733452e-07
-3.98302667128e-06
-5.96856176911e-06
-7.48327894622e-05
0.000130879587638
1.35020213173e-07
-8.52205359958e-07
1.97482875483e-07
1.1338241487e-05
0.012614015248
-1.6205707131e-05
-0.0126122259079
-0.0126116489795
-1.27263779594e-06
-7.73881319745e-06
0.0126075423624
-3.68136277055e-06
3.09343585238e-05
8.43290048185e-06
0.0116823387503
-8.47379543559e-06
8.22613680203e-06
0.0116715641772
-0.0116817476649
4.65088838326e-05
-0.0126131558846
1.43100102122e-06
0.011664483249
4.05437228195e-05
0.0126138323132
-1.4450183409e-05
0.012601631417
2.72733609916e-07
-1.72228524429e-06
-1.0661423051e-05
-5.31692192354e-06
-0.0126114573629
0.0126078671628
-2.27133429105e-06
2.57003258582e-05
6.57409513737e-06
-5.83746553141e-06
-5.05290589348e-06
-0.0116521558953
0.0116446132699
2.9587204529e-05
0.0125973046019
-1.89772763221e-05
3.38868388511e-05
-8.89478791347e-06
-0.0125887287331
1.13265336876e-06
2.19142350261e-05
0.0125814666223
-3.31129841901e-05
-1.34217271384e-05
0.0125995559315
7.2246584067e-06
1.64957321317e-05
1.2272665163e-05
0.0116109791696
-5.20324652491e-06
-7.10058747283e-07
0.0116300052258
2.61138601853e-05
-2.56905201912e-05
0.0116104029579
2.32647094595e-05
0.0125918829302
1.9867558105e-05
-2.84803043232e-05
-0.0125801463171
0.0125720070133
4.4236223581e-05
1.60383760674e-05
-0.0115745476717
0.0115294670118
-2.58779414592e-06
-0.0115748383438
2.61025612085e-05
0.0115323200251
-3.64909127773e-06
3.10999360175e-05
-4.12040978919e-05
1.7406197188e-05
2.04619042097e-05
-4.27713301326e-06
2.5998615267e-05
3.1977924294e-05
-6.78722548679e-06
-0.0125523564542
0.0125452387395
-4.72124072004e-05
2.96567777298e-05
-0.011570627338
0.0115372973335
-0.01156910688
0.0115459287025
3.28310674366e-05
-3.93236809694e-05
3.74002512234e-06
-0.0125737985581
-1.20743630338e-06
-2.54545986078e-05
-0.0115859367565
2.7323509931e-05
-0.012562452333
-3.93979284395e-05
-0.0116031161231
-8.48771426396e-08
2.11530301928e-05
1.29009458006e-06
2.97288647063e-06
2.34122170886e-06
1.3423021806e-06
0.000804685086498
-0.000803759768366
1.95675614417e-05
-8.04182036716e-08
3.25211701578e-07
6.17105874408e-08
-2.27708195938e-07
0.000735183285221
-1.58930844985e-07
1.55115780753e-06
6.29518242615e-07
1.14143495251e-06
6.75529158369e-05
-3.49292773293e-05
-0.000696882472244
-6.78626559541e-08
1.07934054574e-06
1.64305188633e-06
1.55360870626e-06
0.000760576209269
3.15289642958e-05
1.7376560887e-07
-1.83544369536e-07
-1.92100484321e-07
8.77812524787e-08
-8.06288194465e-08
1.15769469697e-07
2.41101411051e-06
0.000542795865963
7.82471426679e-07
6.70256890065e-07
1.7238330349e-06
2.57850448353e-06
0.000286317468367
-5.87842366834e-07
3.65950928659e-07
1.00938164038e-06
-1.27101654159e-07
-2.34166837589e-08
3.79185520532e-06
-0.000292035797487
4.77136864477e-06
7.4682254606e-06
8.12134154551e-06
5.38090843719e-06
0.000390223580764
0.000329027547479
-1.07873565479e-06
3.65133140867e-07
1.85621420985e-06
3.16083233121e-06
5.97868307601e-06
7.76205300491e-06
5.25720402787e-06
0.000395628033398
-0.000249829872657
-8.49873746608e-07
-9.56519099182e-08
-5.55636906462e-05
-0.012631718508
1.45208777603e-05
0.0126282837077
4.41214863292e-05
0.0126517035496
7.37804873344e-05
-8.00963273403e-05
-0.0126508217689
2.00743565992e-06
-2.02838613694e-05
0.0117093396992
2.32653715588e-05
-1.61816157056e-05
0.0117389915172
-0.0117471036486
4.39394436189e-06
0.0126476892973
-6.17052676809e-05
-0.0126320603579
5.90913950507e-05
0.0117346030217
-4.99844527556e-06
-3.74273381383e-05
0.0126260408345
2.29129725029e-06
3.07822118913e-05
-0.0126425686651
2.24312048744e-05
-2.19815443356e-05
0.0126399342721
9.74193847423e-06
-3.31460972493e-05
3.13239146858e-05
1.19584692848e-05
-0.0117307912333
-3.57512471582e-05
0.0117210108701
-4.13017898522e-05
2.09310616364e-05
0.0126252565013
-2.03380047782e-05
0.0117437453136
-3.97689366616e-07
2.25678836543e-05
-0.0117487501567
-1.98858845126e-06
1.2525983879e-05
0.0117323609887
1.85724272866e-05
-2.05339995679e-05
0.0126115361341
1.74462255702e-05
0.0126183822165
1.49632432343e-05
-0.0126175425963
-1.79539758028e-06
-0.0117413508443
0.0117314312824
0.0126159396483
-0.0117462056725
-3.85504487117e-05
0.012562351273
5.27960179127e-05
1.57340475709e-05
0.0114713626271
-2.39219789301e-06
0.0114815161277
2.56320102204e-05
6.35081188515e-05
-5.35910291034e-05
0.0125533467807
-7.01973721949e-05
5.93994118963e-05
1.82011750641e-05
0.0113937719388
-3.09479947659e-06
0.0125627745093
6.194753861e-05
0.0114143654008
2.77462357884e-05
7.2537493304e-05
0.0125542521895
-6.73599524025e-05
-7.93018510595e-05
-0.0125655407531
-8.40776219642e-05
0.0125760267635
7.46895653165e-05
7.22444069035e-05
1.62932611896e-05
-4.93042131304e-06
9.76657901487e-05
-0.0113469251712
2.7107958133e-05
0.011267405193
6.71718518642e-05
-8.92740964855e-05
0.0125663835271
2.4964994276e-05
-0.0125340787093
-4.90785819863e-05
6.36549832508e-05
-6.13039411972e-05
-2.4325529624e-05
-5.33184842751e-05
3.21474207751e-05
0.0114955127397
0.0115074342925
3.59483152264e-05
-3.70086304482e-05
0.0114496173161
4.09175998652e-05
-5.04125423376e-05
0.0125431669755
0.0114334173139
0.0113859831195
-3.27976861159e-05
3.57326785795e-05
0.000104208150924
-3.53487529803e-05
0.0113091126856
3.92712338739e-05
8.12180471083e-05
0.0125526477653
-7.55908332016e-05
0.012544338913
-7.24364602159e-05
0.000103469310791
-0.0113645136509
0.0112862567612
0.0125567523098
-0.000327922785108
-0.000255961634683
-0.000298804342064
0.00153954210017
0.201952871851
-0.000358342645041
-0.0012438047856
-0.000362919985277
-0.000114838302751
-9.91812224692e-05
-0.000113480711912
-9.72874083908e-05
0.00036318982489
0.0504736676701
8.78987347204e-06
0.000306876902651
4.15919955673e-06
1.09560630656e-05
1.05015536879e-05
1.27531254481e-05
-0.000264295101831
0.000209971163067
9.20729019698e-08
1.42104962734e-08
1.00245036108e-08
9.32726504715e-08
1.48314611558e-07
2.57360475261e-08
9.4989163761e-08
-2.38248982382e-05
-1.35011868904e-05
-1.29257631498e-05
-1.67212986699e-05
7.04113003225e-05
-2.78963183108e-05
0.0504881207205
-3.50752796695e-06
1.61541772701e-05
1.94378678584e-05
0.0117110070261
0.0504517435283
-0.000110366435989
-9.10608406596e-05
-9.07181216084e-05
-0.000111459497261
-0.000331700292043
0.0505526281014
-0.00010487459582
-0.000114945261817
-0.000111508823887
-0.000108331093408
0.000377362880627
-0.000337074006159
9.94802409098e-05
0.0111685702742
1.08457323161e-05
-7.5206264315e-06
-1.02101984192e-05
0.000116899710652
-2.88622492707e-05
0.0112348419925
3.38886010246e-05
0.0110048650398
-1.7217729379e-05
0.000150553068957
-2.5060077631e-05
-0.011079110057
3.74861271338e-05
0.0506102132471
-7.73310737962e-05
-9.51679878157e-05
-9.11668120108e-05
-7.99568036452e-05
0.000237326963772
0.000376649676169
-0.000327710902731
-5.63955573412e-05
-3.14176168122e-05
-3.66746625761e-05
-5.80127287481e-05
0.000141586405083
0.000388469791569
0.050591940152
-0.000329170980713
-1.51651909256e-05
0.000134038573921
-2.8140365481e-05
0.0109399505474
3.96868086826e-05
-2.42936950333e-06
2.28037036159e-05
-2.94459083172e-05
-0.0108721803871
0.0108529809303
3.89439973317e-05
2.65687280571e-06
3.69017493688e-06
3.90171927265e-06
1.19628925269e-05
0.000776304123571
4.29276746815e-07
0.000159376424728
5.17903105972e-06
1.13365209191e-05
1.43695509223e-05
1.44395431834e-05
0.000348836903603
5.41958887366e-06
-9.30649430324e-05
1.65923136677e-05
1.60462506967e-05
1.50222560074e-05
-0.000304633305396
0.000348033178292
7.21090980304e-07
1.04334136928e-06
-9.92075825322e-07
5.41024571088e-07
2.48903386333e-06
-2.31619077911e-07
5.80815626784e-07
2.68955401514e-06
-0.000276663372892
1.44078778607e-05
1.3657876847e-05
1.31047163021e-05
-0.000321720976462
3.70940596897e-06
0.000356566235136
4.49422419728e-06
8.88896260806e-06
8.42382709956e-06
-0.000346109137387
3.63178631941e-07
-0.000317765878661
0.000352281238851
-0.012616771267
-3.51853089639e-05
1.17338087901e-05
-4.30617342168e-06
0.0126211233411
-1.47290606101e-05
0.012612667892
1.59953174333e-05
0.0117129424358
4.30136643426e-05
2.15119275831e-05
2.26220387703e-05
0.0116881983008
-1.22241248869e-05
4.7364213726e-05
0.0116892658367
0.0126161307457
0.00010240839003
-0.012583229795
-0.000130510782795
-0.000105353733439
0.0126026946678
0.0125900478157
-9.52799165803e-05
8.20060082601e-05
0.00011439653489
1.20911258957e-05
-1.16738891773e-05
0.0110901368914
0.000108864028696
0.0112019192165
1.891679226e-05
8.79231106475e-05
0.0126060320178
-9.98062778308e-05
1.80595067598e-05
0.011129351131
-0.0125748605902
-0.000142621879699
-9.40504369626e-05
0.0125967184342
9.03090438474e-05
0.0125707784537
-8.19144101654e-05
0.000117533795339
0.0112191644276
-2.75873892638e-05
0.000145310472015
0.0111525329384
3.60986228976e-05
0.0111415013706
0.0125941857414
-8.23959927587e-05
0.0126211916445
-0.000141139186416
-9.68619199278e-05
0.000109652653532
9.60130015733e-05
-0.012622793036
0.012644393806
-8.05789722356e-05
0.000143745322616
-0.0110675565226
0.0109901588546
-1.41289781513e-05
-2.62896117102e-05
0.000149212088337
3.73263722427e-05
0.0126403687631
0.000110192387845
-1.73481511721e-05
-8.309785032e-05
-0.0126628347006
-9.99495405052e-05
-9.28709858929e-05
0.0126717490841
0.000107791747641
9.35065918615e-05
0.0126680525512
-7.68919383865e-05
0.000127256773662
0.0109239084642
-1.78705466716e-05
-2.57549473175e-05
0.000103693219742
0.0108999775097
3.81340320047e-05
0.00010842791379
0.0108764594558
-1.48963018491e-05
0.0126757410547
-7.55031117911e-05
0.0126676617878
-6.74481559743e-05
-8.76637514568e-05
0.000103690231914
8.40447966171e-05
-0.0126723043714
0.0126479267585
-6.79652695676e-05
3.02634996791e-05
-0.0108436562247
-1.67769980847e-05
0.0108306155202
-2.78169821681e-05
7.03423705611e-05
4.00999323661e-05
9.99415025332e-05
0.0126459340509
-1.78037882128e-05
-7.08476238127e-05
-0.000475565321355
-0.0490215231721
0.0489974204433
0.000564683480022
-2.48479687506e-05
1.5004849124e-05
-1.17266308157e-05
-1.57551947176e-06
-4.18888022906e-05
-0.000618295259341
0.0494965843087
-6.5831325573e-05
-3.93357593572e-05
-6.52922825796e-05
-4.03428987005e-05
0.000127162102551
-0.0494068206873
0.000612197858337
-0.000960105655155
-0.049677878094
0.0499423164976
0.000848050808511
-8.22218824048e-05
-8.86918007361e-05
-7.21120694192e-05
-9.33721274321e-05
0.000184094176098
-0.000778158116932
-5.67150510435e-05
-7.39123233466e-05
-6.62973023156e-05
-6.75887208852e-05
0.000180211705075
0.050051000226
0.000706809494655
-0.0498952890788
5.01200332627e-07
-0.000215860728632
-0.000994940938049
0.00088140670726
0.000223695046278
2.62371240165e-06
1.95736640425e-06
1.56836828539e-06
3.28191208172e-06
2.60392804206e-06
-0.000763866991887
0.000666780081428
0.000196580489271
2.02891156509e-06
1.01818936285e-06
1.80911315476e-06
2.9914269502e-06
-0.000177606374764
2.71633401536e-06
-0.000167906188493
0.000809137788718
4.67413984849e-06
5.4787548963e-06
2.38619458291e-06
5.06337892612e-06
-0.000874355898262
4.64187410753e-05
1.00946452702e-05
-0.000154612771925
-0.000729152167869
0.000676707663691
3.16995997392e-05
4.17630141366e-06
7.00333846497e-06
9.16076130942e-06
9.39607366551e-06
7.38200494951e-06
0.000113225843462
5.92075466123e-06
2.52084331189e-06
3.72801288459e-06
0.000656899460538
-0.00020867212552
3.11933343409e-06
-0.0006977198006
8.47742261551e-07
-1.4873335234e-07
2.02524022233e-07
-1.42274272326e-07
-3.05707030709e-08
-2.73220165606e-07
2.72316492783e-08
-1.02582921667e-27
-5.07757926307e-07
-1.03632190827e-06
-6.61519520396e-07
-1.12569844256e-06
-5.05241491172e-07
1.80742197234e-07
-4.79440110773e-08
6.36918031886e-07
-2.41391260866e-08
-5.37507622719e-08
-1.46746423835e-07
-1.50963356228e-07
-2.59292495122e-07
-4.6040534827e-09
-1.28384121642e-07
-7.98724093866e-07
-3.44088561657e-07
-9.33216321238e-07
-7.00702674697e-07
2.57768776057e-07
4.95099081699e-07
-2.08558738304e-07
-4.47984572647e-07
-4.01748632062e-07
-4.24945916077e-09
3.26272362088e-08
-1.85466319979e-07
-1.17884202656e-06
-9.08786189229e-07
-9.67645825046e-07
-8.67429389878e-07
6.4360119902e-07
1.65637361503e-07
0.000153414398232
7.51324971688e-05
7.22128283527e-05
7.1022649575e-05
7.48865044366e-05
0.0487387521122
-0.000120120272805
-3.83276986917e-05
-0.0490270164482
0.0487880869817
0.000282924625751
7.53627884611e-05
6.14674707858e-05
7.17933062308e-05
6.92318011081e-05
-0.000128544636805
-0.0490669946396
6.53061870249e-05
-9.15807741006e-05
-0.0118083397445
1.50033537355e-05
0.0118058666008
1.25303091687e-05
0.0118034063836
8.19434882491e-05
5.3908764518e-05
-6.2422063771e-05
-6.74264099447e-05
-0.0118073485234
4.57110979561e-05
5.16216943151e-05
6.75702420369e-05
2.15884636948e-05
-0.000264313060047
0.0121869624362
0.0121518163329
0.0120739653279
0.0121427566663
-0.000165188742514
8.87923854972e-05
1.39129067498e-05
-3.53580191184e-05
-7.08054252514e-05
0.0118112670242
0.000375646595925
3.94110872667e-05
3.40917884797e-05
5.05195053558e-05
1.8406522089e-05
-9.35728338157e-05
-0.0491631311098
0.0492138273706
2.02757263352e-05
-9.40673155953e-06
-1.72119074966e-06
1.02537546269e-05
-5.22290635892e-05
-0.0492795785617
0.000474242360419
0.011816682199
2.08824891134e-05
-3.1067922285e-05
-0.0118129940723
9.39882525658e-05
0.0118391152993
-4.2838981351e-07
2.67022163146e-05
-9.8343320777e-05
-0.0118542087046
9.22088123627e-05
0.000827964939484
-1.48544183144e-05
-6.81498419764e-06
-5.65832630931e-06
-1.14973462135e-05
0.0490589176589
-0.000189319807512
-0.000152555344779
-0.000192168435873
-0.000157363622768
-4.97434808569e-05
-3.54833429637e-05
-4.1488285203e-05
-3.24028805392e-05
0.0492428147383
-4.20611263677e-05
-2.32084443657e-05
-1.64353181668e-05
-4.57980799373e-05
4.50403823896e-05
0.0494715371757
0.000765532658926
-4.26643083775e-05
-5.75616634125e-05
-4.66626567346e-05
-4.97536833151e-05
3.04838667881e-05
-7.13845372995e-06
0.01181844212
9.99112040596e-05
0.011715711502
-2.56908864485e-06
3.12941307369e-05
-0.0117364371863
0.000125911152499
-0.000123261875308
9.57652910103e-05
-2.377453125e-06
4.74005272545e-05
-0.000103268724525
0.0118138452899
0.0116675026247
0.000104524533616
-7.08476502966e-06
9.2211888827e-05
-0.000112410271046
-0.0117047470211
0.049737644277
-2.77646176006e-05
-5.55389319138e-05
-4.32743346775e-05
-3.86823077828e-05
-0.00104358760328
-1.72287055062e-05
0.00113523320718
-1.19437246369e-05
-1.10005115433e-05
-2.75535805777e-05
6.94945940296e-06
0.0502724625078
-0.000181403523393
-0.00144495193309
2.50545463227e-05
0.0117049243761
0.000141850224151
-0.000137843418046
-1.53720618454e-06
-2.00797726108e-05
-0.0117024047291
0.000179901553961
0.0117377521874
-0.00018339805852
0.000110253654879
-7.04629808723e-06
8.58776379505e-05
-0.000116973471752
0.0116546418002
0.000138837571754
-3.47139311397e-06
2.94965338527e-05
-0.000152051420163
-0.0116136196185
0.0116409267
0.000733907252979
-7.76406681077e-05
-8.91174034738e-05
-7.38981365785e-05
-9.06682360093e-05
0.000181736053899
0.0498165831938
-8.00297038048e-05
-9.05520164143e-05
-9.31381687274e-05
-8.02154500458e-05
0.000203821331069
-0.0496398292564
0.000697455465378
5.55705410966e-05
0.0118324613185
8.87514947516e-05
-0.0118581363771
0.0116711823333
-9.92706778896e-06
0.00012487131089
-0.0117182163217
0.000100204057129
0.0117167819982
-8.92884693201e-06
0.000125023479589
-9.89663283793e-05
-0.0117655534752
9.09969226745e-05
0.000956554131625
-6.93319003575e-05
-4.20062677626e-05
-6.0124774247e-05
-4.73207456322e-05
0.0502293580434
0.000110486578544
0.0500199594458
-8.1544217551e-05
-8.96450900472e-05
-9.20090403785e-05
-7.69763760822e-05
0.000206911997726
-7.15961318618e-05
-4.84515613629e-05
-6.49333476792e-05
-5.22605486625e-05
0.0502142147322
0.000817258029979
0.000182403585198
0.000120196854365
0.0116450763334
0.000111060087268
-4.23327812535e-06
4.10403335516e-05
-0.0115981476053
0.00012853906573
0.011622440902
9.96271333167e-05
-9.63712786056e-06
0.000122919686071
-9.94781459411e-05
0.0116934549279
0.000100974675051
-4.14874094247e-06
4.91515835244e-05
-0.000110507934531
-0.0116491205535
0.0116622980605
0.000100711594899
0.0117197896985
9.54144033338e-05
-0.011734787437
4.83471822747e-05
-0.0116885242477
0.0116932118343
-3.69049034729e-06
8.88148549787e-05
7.92083260227e-05
-6.94728864108e-05
-7.11603999215e-05
-7.39227006985e-05
0.00106276547631
5.30166144685e-05
-0.000993891045429
-1.72001491537e-07
0.00107316283584
0.000205457074042
-6.53452226162e-05
-6.27992519315e-05
-7.10805973985e-05
-0.00102937768071
-3.57070876123e-07
1.38696816638e-06
-2.56621139266e-05
1.19367939062e-06
-1.88770204249e-06
-0.000147945609631
0.000953730149306
8.65843985306e-07
5.85506553101e-08
2.28222735359e-07
-3.16833454258e-08
-1.46089053903e-07
-2.67264673035e-08
4.25770848157e-06
-2.29984358361e-06
-1.60667644729e-07
2.91289335152e-06
-2.45327413639e-09
-5.73622937232e-07
5.60169386157e-06
-8.96505278603e-08
-3.01695522744e-06
4.22160358907e-06
-2.21405378225e-08
-1.64466681287e-06
-1.50344421475e-07
5.00935628483e-08
2.14757269468e-06
1.41763842478e-07
-2.14941424971e-07
4.57662733478e-06
-1.65300203868e-07
-1.34366656699e-06
-5.8756650818e-09
1.77830872522e-06
1.29677284867e-06
0.000234221659041
-5.56880793667e-05
-6.58941656295e-06
-4.44760045978e-05
4.46387178419e-08
-0.00099709897003
0.000917490969748
3.30640312631e-08
-1.46471295756e-05
-2.82785372857e-05
-0.000930155685428
1.91386559145e-06
0.000168825357866
0.000215246305903
3.38284276282e-06
2.71999952698e-06
3.22762386303e-06
4.36632926613e-06
-0.000202161575968
0.000835479094965
3.75347309312e-06
2.5006276867e-06
4.56809041234e-06
3.90875487649e-06
4.14573917331e-06
0.000739091765139
0.000171107583025
4.52522758976e-06
6.25100732079e-06
5.25118191634e-06
3.51045323355e-06
1.30943904568e-07
-1.42051478333e-06
3.56666097615e-07
5.43281032667e-06
3.21386458998e-06
2.08529329118e-07
-1.42442735646e-06
5.41682963858e-06
5.26299951531e-07
0.000174167412123
-2.57585814495e-07
1.01824017081e-06
1.82915404879e-06
2.21062615897e-06
0.000663011446215
-0.000156263876828
0.000673291431532
2.76890517898e-06
2.06224747849e-06
4.13431118518e-06
3.12869345838e-06
1.73395325317e-06
9.49279096347e-05
1.07213355073e-06
1.0308566583e-06
2.70852780159e-06
0.00067327259427
4.55531504812e-06
5.0927935857e-07
6.8057401949e-07
2.23929148846e-06
4.96188884146e-06
7.89155517102e-07
1.07176457395e-06
3.21189279975e-06
3.87734392847e-05
5.61077448313e-06
8.22055932123e-06
1.08292510967e-05
8.89806824335e-06
5.72528229447e-06
0.000712231730491
1.06364484639e-05
7.88168336768e-06
9.11510234712e-06
-0.000787665720865
-0.000114259320964
2.50085869041e-06
-8.57626481591e-07
8.40023844303e-08
2.36199002469e-07
5.14693582311e-06
4.94623093072e-06
-2.27703782342e-06
-1.97283920352e-07
-3.07481099622e-05
2.64416074798e-06
2.04899535489e-06
4.20764677029e-06
8.18639661427e-06
0.00067606277361
0.000669512282953
4.31966182875e-06
8.76481580583e-06
7.17230812964e-06
9.51768342708e-06
2.85434926027e-06
4.3714609527e-06
2.17596089177e-06
8.36031961793e-06
0.000654021655015
-0.000150983468242
5.52685945207e-06
4.12087423934e-07
7.32724868007e-07
4.36670456555e-06
6.04350460344e-06
-2.81145461131e-07
5.98825690375e-06
-2.66679493727e-07
0.0122303982157
0.000101707783864
-2.45519472195e-05
3.07713298231e-05
-0.0122632447728
2.33227095237e-05
-0.0122319448713
0.0121988043161
-9.58289995099e-06
1.10325443874e-05
-9.89910804171e-05
1.45999842072e-05
-0.0118067927338
-9.04964286781e-05
-0.0118053266629
4.07088266317e-05
0.0117985382164
3.66333061988e-05
0.0121975478591
3.40702679276e-05
-0.0118040893355
-1.48897897927e-05
-0.0122657645442
0.0122311124201
3.89158616815e-05
0.000100715866964
-0.0122647111682
-5.10697330381e-05
-0.0122396817955
0.0122244043838
6.53574784518e-05
-8.23965262075e-05
-0.011801691844
0.0117928621005
-8.78373444904e-05
-5.94247665159e-05
8.03989500053e-05
-0.0118047832738
0.0122060230162
5.16090428149e-05
-0.0122711002552
-0.0118009991549
-0.0121954580802
8.85289445524e-05
2.47280465179e-05
-5.91407847484e-05
0.0121871481179
-6.05059169409e-05
0.0122193460998
8.18155568007e-05
-5.94920264272e-05
0.0118067171147
-4.25250798452e-05
2.28821590215e-06
-8.20436880561e-05
0.000100897930151
0.0117884656506
-4.18794562013e-05
0.000112858463954
0.0122188607032
-5.3340073995e-05
0.0118024405927
-5.9710795786e-05
0.0122717807771
4.52652429929e-05
7.14479606972e-05
-0.0122893906538
-0.0122553459648
7.37164586967e-05
0.0122500320854
-6.55834011389e-05
9.09596025019e-05
-0.0118132668835
-8.64046730874e-06
-0.0118209918845
0.000100060023005
0.0118247611157
-0.0122786375451
8.52474608938e-05
0.012270097635
9.46536077803e-05
-0.0118243683529
0.0122911409942
8.33152139821e-05
2.31225395236e-05
-0.0123058603137
-9.75048388185e-05
-0.0123072078545
0.01230819904
0.000113808036265
1.30894625125e-05
-0.0118388400615
0.0118318090291
-7.8431636229e-06
-9.19137926455e-05
-0.0118527192107
8.7453405575e-05
0.0122902310671
-0.0123222164381
0.000100663983549
-0.0118400851158
-0.000122387378154
-0.0122726054481
-5.48179083967e-05
0.0122922326959
0.000133026435559
0.0122483002864
9.15607151459e-05
3.23642836052e-05
0.000106683984829
0.0117794651009
1.73550512498e-05
0.0118100586859
0.000103951723368
0.0122593693143
0.000105091716279
0.0117670767449
0.000109726032325
-0.000147800058989
0.0123221304543
-5.50396302446e-05
0.000158138710374
-0.0122805099225
0.000188931881704
0.0123015668743
-0.000185552248741
3.22392886656e-05
0.000114306366236
-0.000112572097826
3.77130801161e-05
-0.0117392788811
0.00012294188718
0.0117020212228
-0.00014229146534
0.000191214493726
0.0123454858655
0.00011478990591
-0.0122987228647
0.000136577239903
-7.13019009313e-05
0.0123247258792
-0.000116284464533
0.0123186329316
0.0001301761983
3.58949674049e-05
0.0118050512975
8.24658585246e-05
-0.000105443805081
0.0117588405846
9.92777758272e-05
0.0123465625019
0.000145477739718
0.0117569213296
0.0123558861185
0.000157418574251
-7.280192887e-05
-0.000179230773526
-0.012377554364
0.0124107141065
0.000180754216003
6.31982417224e-05
-0.01172233998
0.0116757271838
8.50089756505e-05
-0.000108753551513
0.000100771589088
0.0123839685607
0.000161764836185
-0.000259723939084
-0.0123675231424
-1.7826861046e-05
0.0123964804788
0.000261647963828
-1.28464551973e-05
0.0123297886515
0.000229467587724
-4.87760191179e-06
-0.000228320438778
-3.42030427834e-07
0.000149786515112
0.0116968996112
-0.00015493285127
2.72086740124e-05
0.0116613670325
0.000134639970856
0.0123635506219
-2.61329032431e-05
-0.000267593935944
0.000228198264209
6.30162990774e-06
0.0116770117472
0.00014791878348
-0.000291479848769
-1.18256520386e-05
0.0124543366264
0.000293848957123
-4.80702320444e-05
-0.0124283820931
0.000316238547093
0.0125046622007
-0.000326815666685
-8.61409661368e-05
-4.13018596632e-06
0.000165278276332
-0.000167251446638
-0.0116940367816
-1.12496372727e-05
0.00017595856817
0.0117109176496
-0.000300378886393
-5.99391388733e-05
0.00016259884944
0.000318052136057
0.0125131716692
-7.2249483437e-05
-0.0124044759139
0.000239497668962
-3.34462535009e-05
0.0124327261285
-0.000204694460721
0.0124425621442
0.000203146044514
4.05927475202e-05
0.0116293125865
4.5901738934e-05
-0.000133535739964
0.0116352941835
0.000120146904055
0.0124631523757
0.000226392032372
0.0116476201267
0.0002698036834
-2.82053721405e-05
0.012473548744
-0.0124876857362
-0.000285950114729
0.000269199112848
0.012523025419
-0.0116692127451
9.88535543226e-06
0.011684333126
3.35706299088e-05
-0.000151377956789
0.000131433228928
0.000251518935581
0.0125225296721
-0.000149924917225
-0.0123517153708
-0.000101248470761
0.0123795719451
0.00015771257496
0.012336947026
0.000136831975127
-0.0123274126298
9.83235909644e-05
9.39737297738e-05
0.0117760425675
5.56227516242e-05
0.0118396355662
-0.0118665226186
7.88598401269e-05
0.0123656585723
-0.0123423233818
0.00014294784774
0.0117926093524
8.38799249365e-05
-0.000163525932352
0.0124143033696
-0.000121239006903
0.000172675151585
-0.0123976425148
0.000179960680897
0.0124345817467
0.000107121945601
9.73439944846e-05