/*--------------------------------*- C++ -*----------------------------------*\
| =========                 |                                                 |
| \\      /  F ield         | OpenFOAM: The Open Source CFD Toolbox           |
|  \\    /   O peration     | Version:  v1906                                 |
|   \\  /    A nd           | Web:      www.OpenFOAM.com                      |
|    \\/     M anipulation  |                                                 |
\*---------------------------------------------------------------------------*/
FoamFile
{
    version     2.0;
    format      ascii;
    class       volVectorField;
    location    "4.35";
    object      force.turbine;
}
// * * * * * * * * * * * * * * * * * * * * * * * * * * * * * * * * * * * * * //

dimensions      [1 -2 -2 0 0 0 0];


internalField   nonuniform List<vector> 
28582
(
(0 0 0)
(0 0 0)
(0 0 0)
(0 0 0)
(0 0 0)
(0 0 0)
(0 0 0)
(0 0 0)
(0 0 0)
(0 0 0)
(0 0 0)
(0 0 0)
(0 0 0)
(0 0 0)
(0 0 0)
(0 0 0)
(0 0 0)
(0 0 0)
(0 0 0)
(0 0 0)
(0 0 0)
(0 0 0)
(0 0 0)
(0 0 0)
(0 0 0)
(0 0 0)
(0 0 0)
(0 0 0)
(0 0 0)
(0 0 0)
(0 0 0)
(0 0 0)
(0 0 0)
(0 0 0)
(0 0 0)
(0 0 0)
(0 0 0)
(0 0 0)
(0 0 0)
(0 0 0)
(0 0 0)
(0 0 0)
(0 0 0)
(0 0 0)
(0 0 0)
(0 0 0)
(0 0 0)
(0 0 0)
(0 0 0)
(0 0 0)
(0 0 0)
(0 0 0)
(0 0 0)
(0 0 0)
(0 0 0)
(0 0 0)
(0 0 0)
(0 0 0)
(0 0 0)
(0 0 0)
(0 0 0)
(0 0 0)
(0 0 0)
(0 0 0)
(0 0 0)
(0 0 0)
(0 0 0)
(0 0 0)
(0 0 0)
(0 0 0)
(0 0 0)
(0 0 0)
(0 0 0)
(0 0 0)
(0 0 0)
(0 0 0)
(0 0 0)
(0 0 0)
(0 0 0)
(0 0 0)
(0 0 0)
(0 0 0)
(0 0 0)
(0 0 0)
(0 0 0)
(0 0 0)
(0 0 0)
(0 0 0)
(0 0 0)
(0 0 0)
(0 0 0)
(0 0 0)
(0 0 0)
(0 0 0)
(0 0 0)
(0 0 0)
(0 0 0)
(0 0 0)
(0 0 0)
(0 0 0)
(0 0 0)
(0 0 0)
(0 0 0)
(0 0 0)
(0 0 0)
(0 0 0)
(0 0 0)
(0 0 0)
(0 0 0)
(0 0 0)
(0 0 0)
(0 0 0)
(0 0 0)
(0 0 0)
(0 0 0)
(0 0 0)
(0 0 0)
(0 0 0)
(0 0 0)
(0 0 0)
(0 0 0)
(0 0 0)
(0 0 0)
(0 0 0)
(0 0 0)
(0 0 0)
(0 0 0)
(0 0 0)
(0 0 0)
(0 0 0)
(0 0 0)
(0 0 0)
(0 0 0)
(0 0 0)
(0 0 0)
(0 0 0)
(0 0 0)
(0 0 0)
(0 0 0)
(0 0 0)
(0 0 0)
(0 0 0)
(0 0 0)
(0 0 0)
(0 0 0)
(0 0 0)
(0 0 0)
(0 0 0)
(0 0 0)
(0 0 0)
(0 0 0)
(0 0 0)
(0 0 0)
(0 0 0)
(0 0 0)
(0 0 0)
(0 0 0)
(0 0 0)
(0 0 0)
(0 0 0)
(0 0 0)
(0 0 0)
(0 0 0)
(0 0 0)
(0 0 0)
(0 0 0)
(0 0 0)
(0 0 0)
(0 0 0)
(0 0 0)
(0 0 0)
(0 0 0)
(0 0 0)
(0 0 0)
(0 0 0)
(0 0 0)
(0 0 0)
(0 0 0)
(0 0 0)
(0 0 0)
(0 0 0)
(0 0 0)
(0 0 0)
(0 0 0)
(0 0 0)
(0 0 0)
(0 0 0)
(0 0 0)
(0 0 0)
(0 0 0)
(0 0 0)
(0 0 0)
(0 0 0)
(0 0 0)
(0 0 0)
(0 0 0)
(0 0 0)
(0 0 0)
(0 0 0)
(0 0 0)
(0 0 0)
(0 0 0)
(0 0 0)
(0 0 0)
(0 0 0)
(0 0 0)
(0 0 0)
(0 0 0)
(0 0 0)
(0 0 0)
(0 0 0)
(0 0 0)
(0 0 0)
(0 0 0)
(0 0 0)
(0 0 0)
(0 0 0)
(-0.0019379426575 2.46900710598e-05 0)
(0 0 0)
(0 0 0)
(0 0 0)
(0 0 0)
(-2.57698332918e-05 2.43879396393e-08 0)
(0 0 0)
(-2.61330190564e-06 -7.24682372918e-09 0)
(0 0 0)
(0 0 0)
(0 0 0)
(0 0 0)
(0 0 0)
(0 0 0)
(0 0 0)
(0 0 0)
(0 0 0)
(0 0 0)
(0 0 0)
(0 0 0)
(-0.0160827632117 0.000441601970786 0)
(0 0 0)
(0 0 0)
(0 0 0)
(-0.0300162693203 0.000526582016114 0)
(0 0 0)
(0 0 0)
(-0.0285510942952 0.000766860136571 0)
(-0.218093904587 -0.0146157769933 0.0075474903543)
(-0.107019551914 -0.00330347438332 0.00197855804679)
(-2.19896585637 -0.282069026704 0.123667386394)
(-0.00605414553508 2.81269921853e-05 0)
(-0.080276780546 0.0014083132216 0)
(0 0 0)
(0 0 0)
(0 0 0)
(0 0 0)
(0 0 0)
(-0.0160825807489 0.000441596960708 0)
(0 0 0)
(0 0 0)
(0 0 0)
(-0.0294670609306 0.000516947132509 0)
(0 0 0)
(0 0 0)
(0 0 0)
(0 0 0)
(0 0 0)
(0 0 0)
(0 0 0)
(0 0 0)
(-1.65636981294e-05 4.16524962414e-08 0)
(0 0 0)
(-1.05620234307e-05 2.65601701874e-08 0)
(-0.000159977083692 1.2556267556e-06 0)
(-0.000719643554993 5.64833213166e-06 0)
(-9.86885243963e-05 7.74585639663e-07 0)
(-0.000430012011325 3.37507456811e-06 0)
(0 0 0)
(0 0 0)
(-0.000197327782515 7.31886561353e-07 0)
(0 0 0)
(0 0 0)
(0 0 0)
(0 0 0)
(0 0 0)
(0 0 0)
(-0.00866654130477 0.000110414784374 0)
(-0.000416563305533 3.98070018021e-06 0)
(-0.00199693719939 2.54416822728e-05 0)
(-3.47761195541e-05 2.18932239656e-07 0)
(-0.000157388258851 1.2353076095e-06 0)
(-4.56320727995e-06 -1.26540139607e-08 0)
(-3.49378312186e-05 2.19950291622e-07 0)
(0 0 0)
(0 0 0)
(0 0 0)
(0 0 0)
(0 0 0)
(-0.000216792158558 8.04079716668e-07 0)
(0 0 0)
(0 0 0)
(0 0 0)
(0 0 0)
(0 0 0)
(0 0 0)
(0 0 0)
(0 0 0)
(0 0 0)
(0 0 0)
(0 0 0)
(0 0 0)
(0 0 0)
(0 0 0)
(0 0 0)
(0 0 0)
(0 0 0)
(0 0 0)
(0 0 0)
(0 0 0)
(-0.00521723195639 2.75189946687e-05 0)
(0 0 0)
(0 0 0)
(0 0 0)
(0 0 0)
(0 0 0)
(-0.00480182962344 2.2308849946e-05 0)
(0 0 0)
(0 0 0)
(0 0 0)
(0 0 0)
(0 0 0)
(0 0 0)
(0 0 0)
(0 0 0)
(0 0 0)
(0 0 0)
(0 0 0)
(0 0 0)
(0 0 0)
(0 0 0)
(0 0 0)
(0 0 0)
(0 0 0)
(0 0 0)
(0 0 0)
(0 0 0)
(0 0 0)
(0 0 0)
(-0.0362899037403 0.000771772478883 0)
(-0.00888537176956 0.000110473985938 0)
(-0.014590769984 0.000181410588081 0)
(-0.0103149921597 0.000149661056824 0)
(-0.0194236269163 0.000413079648857 0)
(0 0 0)
(0 0 0)
(0 0 0)
(0 0 0)
(0 0 0)
(0 0 0)
(0 0 0)
(0 0 0)
(0 0 0)
(0 0 0)
(-0.00537032587662 2.49500302047e-05 0)
(0 0 0)
(-0.00803298032401 0.000116551162242 0)
(0 0 0)
(0 0 0)
(-0.39501586681 -0.0517467242312 0.0227913235889)
(-0.415824961352 -0.0629173806252 0.0272057186526)
(-0.491857900735 -0.0566542505654 0.0251410718197)
(-0.0434237451593 0.000761792314334 0)
(-1.83363158236 -0.333655190439 0.141656978714)
(-0.0740993292275 -0.00282538802624 0.00165069214507)
(-0.126604226486 -0.00236791940576 0.00175234474346)
(-1.05500921777 -0.157547106458 0.0683169219755)
(-8.15160974627 -1.51545606812 0.642134900167)
(-1.26869497372 -0.169320723282 0.0738643854299)
(-0.648486103504 -0.0392057185289 0.0194553793663)
(-4.86874706712 -0.918428223105 0.388554944781)
(-0.347789214527 -0.0206673709177 0.010282183479)
(-1.82101794149 -0.264287546492 0.115069817504)
(-0.0616493121779 0.00130705546718 0)
(-0.00910215716831 0.000132063935686 0)
(-0.0204379524402 0.000358547495904 0)
(-0.0203819375031 0.00035756481354 0)
(-0.0249392914963 0.000530380542131 0)
(-0.0249394189299 0.000530383252243 0)
(-0.0489080597049 0.000858004850929 0)
(-0.181621982134 -0.0071007378171 0.00412555883416)
(-0.101643481107 0.00215499026658 0)
(-0.196504878003 0.00345198454102 0)
(-0.0430007354734 0.000754371362354 0)
(-0.052796590132 0.00112281794778 0)
(-0.103562262722 0.0018168155581 0)
(-0.352784985487 -0.0164724404959 0.00904814960052)
(0 0 0)
(0 0 0)
(0 0 0)
(0 0 0)
(0 0 0)
(0 0 0)
(0 0 0)
(0 0 0)
(0 0 0)
(0 0 0)
(0 0 0)
(0 0 0)
(0 0 0)
(0 0 0)
(0 0 0)
(0 0 0)
(0 0 0)
(0 0 0)
(0 0 0)
(0 0 0)
(0 0 0)
(0 0 0)
(0 0 0)
(-0.00531679284151 2.47013207458e-05 0)
(0 0 0)
(-0.00803223045125 0.000116540282278 0)
(0 0 0)
(0 0 0)
(0 0 0)
(-0.0362858906375 0.000771687132768 0)
(-0.014350750815 0.000178426371439 0)
(-0.00871654813954 0.000108374960729 0)
(-0.0194220239532 0.000413045558857 0)
(0 0 0)
(-0.0103138467174 0.000149644437508 0)
(0 0 0)
(0 0 0)
(0 0 0)
(0 0 0)
(0 0 0)
(0 0 0)
(0 0 0)
(0 0 0)
(0 0 0)
(0 0 0)
(0 0 0)
(0 0 0)
(0 0 0)
(0 0 0)
(0 0 0)
(0 0 0)
(0 0 0)
(0 0 0)
(0 0 0)
(0 0 0)
(0 0 0)
(0 0 0)
(0 0 0)
(0 0 0)
(0 0 0)
(0 0 0)
(0 0 0)
(0 0 0)
(0 0 0)
(0 0 0)
(0 0 0)
(0 0 0)
(0 0 0)
(0 0 0)
(0 0 0)
(0 0 0)
(-0.0150371860677 0.000286551796915 0)
(0 0 0)
(0 0 0)
(0 0 0)
(0 0 0)
(0 0 0)
(0 0 0)
(0 0 0)
(-0.0033551777991 6.39369775019e-05 0)
(0 0 0)
(0 0 0)
(0 0 0)
(0 0 0)
(0 0 0)
(0 0 0)
(0 0 0)
(0 0 0)
(0 0 0)
(0 0 0)
(0 0 0)
(0 0 0)
(0 0 0)
(0 0 0)
(0 0 0)
(0 0 0)
(0 0 0)
(0 0 0)
(0 0 0)
(0 0 0)
(0 0 0)
(0 0 0)
(0 0 0)
(0 0 0)
(0 0 0)
(0 0 0)
(0 0 0)
(-0.321549182761 0.00863680537558 0)
(-0.00772009040266 0.000147115674919 0)
(0 0 0)
(0 0 0)
(0 0 0)
(0 0 0)
(0 0 0)
(0 0 0)
(-0.0706051666466 0.00191302355325 0)
(0 0 0)
(0 0 0)
(0 0 0)
(0 0 0)
(0 0 0)
(0 0 0)
(0 0 0)
(0 0 0)
(0 0 0)
(0 0 0)
(0 0 0)
(0 0 0)
(0 0 0)
(0 0 0)
(0 0 0)
(0 0 0)
(0 0 0)
(0 0 0)
(0 0 0)
(0 0 0)
(0 0 0)
(0 0 0)
(0 0 0)
(0 0 0)
(0 0 0)
(0 0 0)
(0 0 0)
(-1.51175340024 0.0525007885574 0)
(-0.0430740841032 0.00154555720004 0)
(0 0 0)
(0 0 0)
(0 0 0)
(0 0 0)
(0 0 0)
(0 0 0)
(-0.331615765064 0.0113866862379 0)
(-0.00655109862391 0.00025353759502 0)
(0 0 0)
(0 0 0)
(0 0 0)
(0 0 0)
(0 0 0)
(0 0 0)
(0 0 0)
(0 0 0)
(0 0 0)
(0 0 0)
(0 0 0)
(0 0 0)
(0 0 0)
(0 0 0)
(0 0 0)
(0 0 0)
(0 0 0)
(0 0 0)
(0 0 0)
(0 0 0)
(0 0 0)
(0 0 0)
(0 0 0)
(0 0 0)
(0 0 0)
(0 0 0)
(0 0 0)
(0 0 0)
(0 0 0)
(0 0 0)
(0 0 0)
(0 0 0)
(0 0 0)
(-2.57021836659 0.0690340617857 0)
(-0.0776050017574 0.00208440985242 0)
(0 0 0)
(0 0 0)
(0 0 0)
(0 0 0)
(0 0 0)
(0 0 0)
(-2.5700735449 0.0690301719879 0)
(-0.573459207229 0.0154026672823 0)
(-0.0160826118329 0.000441597814215 0)
(0 0 0)
(0 0 0)
(0 0 0)
(0 0 0)
(0 0 0)
(0 0 0)
(-0.0470721754377 0.00126432193847 0)
(-0.0776087631798 0.0020845108813 0)
(-0.0160825126036 0.000441595089567 0)
(0 0 0)
(0 0 0)
(0 0 0)
(0 0 0)
(0 0 0)
(0 0 0)
(0 0 0)
(0 0 0)
(0 0 0)
(0 0 0)
(0 0 0)
(0 0 0)
(0 0 0)
(0 0 0)
(0 0 0)
(0 0 0)
(0 0 0)
(0 0 0)
(0 0 0)
(0 0 0)
(0 0 0)
(0 0 0)
(0 0 0)
(0 0 0)
(0 0 0)
(0 0 0)
(-0.0336806451866 0.000430313420894 0)
(-0.00101586839239 1.29425206151e-05 0)
(0 0 0)
(0 0 0)
(0 0 0)
(0 0 0)
(0 0 0)
(0 0 0)
(-0.0231044099802 0.000295188457384 0)
(-0.0361470315357 0.000461824668414 0)
(-0.00736278427737 9.38044612944e-05 0)
(-0.000170580055859 6.32679539225e-07 0)
(0 0 0)
(0 0 0)
(0 0 0)
(0 0 0)
(0 0 0)
(0 0 0)
(-0.000695953853726 6.65057049947e-06 0)
(-0.00116369724166 1.48259121484e-05 0)
(-0.000195232316751 7.24114502025e-07 0)
(0 0 0)
(0 0 0)
(0 0 0)
(0 0 0)
(0 0 0)
(0 0 0)
(0 0 0)
(0 0 0)
(0 0 0)
(0 0 0)
(0 0 0)
(0 0 0)
(0 0 0)
(0 0 0)
(0 0 0)
(0 0 0)
(0 0 0)
(0 0 0)
(0 0 0)
(0 0 0)
(0 0 0)
(0 0 0)
(0 0 0)
(0 0 0)
(0 0 0)
(0 0 0)
(-0.000195599192602 5.3376299947e-07 0)
(-0.000194163817366 5.29846060033e-07 0)
(-2.50814321525e-05 2.37364536462e-08 0)
(0 0 0)
(0 0 0)
(0 0 0)
(0 0 0)
(0 0 0)
(0 0 0)
(0 0 0)
(-2.52345546583e-05 2.38813650388e-08 0)
(-2.51102873023e-05 2.37637614538e-08 0)
(-2.55886298939e-06 -7.09586174915e-09 0)
(0 0 0)
(0 0 0)
(0 0 0)
(0 0 0)
(0 0 0)
(0 0 0)
(0 0 0)
(0 0 0)
(0 0 0)
(0 0 0)
(0 0 0)
(0 0 0)
(0 0 0)
(0 0 0)
(0 0 0)
(0 0 0)
(0 0 0)
(0 0 0)
(0 0 0)
(0 0 0)
(0 0 0)
(0 0 0)
(0 0 0)
(0 0 0)
(0 0 0)
(0 0 0)
(0 0 0)
(0 0 0)
(0 0 0)
(0 0 0)
(0 0 0)
(0 0 0)
(0 0 0)
(0 0 0)
(0 0 0)
(0 0 0)
(-0.00335521537557 6.39376935671e-05 0)
(-0.00912035337858 0.000173799382236 0)
(-0.00203500751679 3.87795334876e-05 0)
(-0.0866494826356 0.00200106602793 0)
(-0.017764187527 0.000338518113275 0)
(-0.0525547439423 0.0012136888705 0)
(-0.0107744651738 0.000205320486324 0)
(0 0 0)
(0 0 0)
(0 0 0)
(-0.00240401486568 4.58114155448e-05 0)
(0 0 0)
(0 0 0)
(0 0 0)
(0 0 0)
(0 0 0)
(0 0 0)
(-0.0177639805346 0.000338514168785 0)
(-0.00396363038726 7.55317786628e-05 0)
(-0.00396367987105 7.55327216365e-05 0)
(0 0 0)
(0 0 0)
(0 0 0)
(0 0 0)
(0 0 0)
(0 0 0)
(0 0 0)
(0 0 0)
(-0.0706043682298 0.00191300192042 0)
(-0.195030394545 0.00523851295638 0)
(-0.042823825956 0.00116029734912 0)
(-0.800964742313 0.0249855669948 0)
(-0.176593578112 0.0055806702191 0)
(-0.485803178036 0.015154309809 0)
(-0.107106971247 0.00338477022261 0)
(0 0 0)
(-0.00468232114717 8.92273017317e-05 0)
(0 0 0)
(-0.0227562655901 0.000741114895405 0)
(0 0 0)
(-0.0121729804405 0.000383960362706 0)
(0 0 0)
(-0.0149188014264 0.000393238396909 0)
(-0.0149185770959 0.000393232483876 0)
(-0.00284007558881 5.41210808781e-05 0)
(-0.176598044508 0.00558081136515 0)
(-0.0375225744344 0.00122201679872 0)
(-0.0375226338967 0.00122201873526 0)
(-0.00738582989467 0.00023296397617 0)
(0 0 0)
(0 0 0)
(0 0 0)
(-0.00335512540459 6.39359790611e-05 0)
(0 0 0)
(0 0 0)
(0 0 0)
(-0.331600931784 0.0113861769077 0)
(-0.901418855654 0.0309520075931 0)
(-0.201126139501 0.0069060656519 0)
(-2.2239783313 0.0737800030493 0)
(-0.49051259222 0.0161340012642 0)
(-1.33343787702 0.0438596046968 0)
(-0.297514725423 0.0097858913965 0)
(0 0 0)
(-0.0261285777557 0.000937529196917 0)
(0 0 0)
(-0.0663644483024 0.00218286769756 0)
(0 0 0)
(-0.0402597631952 0.00132422914435 0)
(0 0 0)
(-0.0739909691715 0.00254062695189 0)
(-0.0739912172103 0.0025406354688 0)
(-0.0139691878376 0.000545518941045 0)
(-0.49053195014 0.0161346379872 0)
(-0.109449874568 0.00360003890349 0)
(-0.109449247014 0.00360001826189 0)
(-0.0244213610372 0.000803270448292 0)
(0 0 0)
(0 0 0)
(0 0 0)
(-0.0132943398787 0.000491409098852 0)
(0 0 0)
(0 0 0)
(0 0 0)
(-7.17565989901 0.198516606959 0)
(-4.26311862153 0.115286781528 0)
(-4.41318468378 0.0775260413882 0)
(-2.09064826949 0.0367262409988 0)
(-0.573467016924 0.0154028770446 0)
(-1.55887939243 0.0418702853004 0)
(-0.347824130546 0.00934228501003 0)
(-2.67657984912 0.0470192514092 0)
(-0.282497572274 0.00496261091467 0)
(-1.26941779258 0.022299754798 0)
(-0.133974421432 0.00235351730897 0)
(0 0 0)
(-0.0470718127992 0.00126431219829 0)
(0 0 0)
(-0.102393993452 0.0017963203533 0)
(0 0 0)
(-0.0485292319432 0.000851358992164 0)
(0 0 0)
(0 0 0)
(0 0 0)
(0 0 0)
(0 0 0)
(0 0 0)
(0 0 0)
(0 0 0)
(0 0 0)
(0 0 0)
(0 0 0)
(0 0 0)
(0 0 0)
(0 0 0)
(0 0 0)
(0 0 0)
(0 0 0)
(0 0 0)
(0 0 0)
(0 0 0)
(0 0 0)
(0 0 0)
(0 0 0)
(0 0 0)
(0 0 0)
(0 0 0)
(0 0 0)
(0 0 0)
(0 0 0)
(0 0 0)
(0 0 0)
(0 0 0)
(0 0 0)
(0 0 0)
(0 0 0)
(0 0 0)
(0 0 0)
(0 0 0)
(0 0 0)
(0 0 0)
(0 0 0)
(0 0 0)
(0 0 0)
(-0.437960700119 -0.00871032112311 0.00754748846199)
(-0.573465031224 0.0154028237103 0)
(-2.70348194684 -0.272920404926 0.12355716467)
(-2.7187645171 0.0426670466799 0.0019448453646)
(-0.134511791154 0.00236295723733 0)
(-0.283362680305 0.00497780819414 0)
(-1.55882560336 0.041868840568 0)
(-0.573462223063 0.0154027482852 0)
(-0.347821658065 0.00934221860111 0)
(-2.68409999156 0.0471513571143 0)
(-1.26654171145 0.0222492309245 0)
(-0.282783045164 0.00496762579275 0)
(-0.133041741647 0.00233713300221 0)
(-0.127955901583 0.00343679577213 0)
(-0.127955719861 0.00343679089121 0)
(-0.0285507454268 0.000766850766239 0)
(-0.769775514939 0.0135225812439 0)
(-0.0801380850584 0.00140588005615 0)
(-0.0794836847319 0.00139439976726 0)
(-0.00598468656488 2.7804292326e-05 0)
(0 0 0)
(0 0 0)
(0 0 0)
(-0.0294823664558 0.000517215640706 0)
(0 0 0)
(0 0 0)
(0 0 0)
(0 0 0)
(0 0 0)
(0 0 0)
(0 0 0)
(0 0 0)
(0 0 0)
(0 0 0)
(0 0 0)
(0 0 0)
(0 0 0)
(0 0 0)
(0 0 0)
(0 0 0)
(0 0 0)
(0 0 0)
(0 0 0)
(0 0 0)
(0 0 0)
(0 0 0)
(0 0 0)
(0 0 0)
(0 0 0)
(0 0 0)
(0 0 0)
(0 0 0)
(0 0 0)
(0 0 0)
(0 0 0)
(0 0 0)
(0 0 0)
(0 0 0)
(0 0 0)
(0 0 0)
(0 0 0)
(0 0 0)
(0 0 0)
(0 0 0)
(0 0 0)
(0 0 0)
(0 0 0)
(0 0 0)
(0 0 0)
(-0.0776086747427 0.00208450850595 0)
(0 0 0)
(0 0 0)
(-0.0486220049077 0.00085298652869 0)
(-0.10262374377 0.00180035091366 0)
(0 0 0)
(0 0 0)
(-0.0470719221952 0.00126431513658 0)
(0 0 0)
(0 0 0)
(-0.102413640606 0.00179666502764 0)
(-0.0481690402964 0.000845040070865 0)
(0 0 0)
(0 0 0)
(0 0 0)
(0 0 0)
(0 0 0)
(-0.0292123487786 0.000512478661191 0)
(0 0 0)
(0 0 0)
(0 0 0)
(0 0 0)
(0 0 0)
(0 0 0)
(0 0 0)
(0 0 0)
(0 0 0)
(0 0 0)
(0 0 0)
(0 0 0)
(0 0 0)
(0 0 0)
(0 0 0)
(0 0 0)
(0 0 0)
(0 0 0)
(0 0 0)
(0 0 0)
(0 0 0)
(0 0 0)
(0 0 0)
(0 0 0)
(0 0 0)
(0 0 0)
(0 0 0)
(0 0 0)
(0 0 0)
(0 0 0)
(0 0 0)
(0 0 0)
(0 0 0)
(0 0 0)
(0 0 0)
(0 0 0)
(0 0 0)
(0 0 0)
(0 0 0)
(0 0 0)
(0 0 0)
(0 0 0)
(0 0 0)
(0 0 0)
(0 0 0)
(0 0 0)
(0 0 0)
(0 0 0)
(0 0 0)
(0 0 0)
(0 0 0)
(0 0 0)
(0 0 0)
(0 0 0)
(0 0 0)
(0 0 0)
(0 0 0)
(0 0 0)
(0 0 0)
(0 0 0)
(0 0 0)
(0 0 0)
(0 0 0)
(0 0 0)
(0 0 0)
(0 0 0)
(0 0 0)
(0 0 0)
(0 0 0)
(0 0 0)
(0 0 0)
(0 0 0)
(0 0 0)
(0 0 0)
(0 0 0)
(0 0 0)
(0 0 0)
(0 0 0)
(0 0 0)
(0 0 0)
(0 0 0)
(0 0 0)
(0 0 0)
(0 0 0)
(0 0 0)
(0 0 0)
(0 0 0)
(0 0 0)
(0 0 0)
(0 0 0)
(0 0 0)
(0 0 0)
(0 0 0)
(0 0 0)
(0 0 0)
(0 0 0)
(0 0 0)
(0 0 0)
(0 0 0)
(0 0 0)
(0 0 0)
(0 0 0)
(0 0 0)
(0 0 0)
(0 0 0)
(0 0 0)
(0 0 0)
(0 0 0)
(0 0 0)
(0 0 0)
(0 0 0)
(0 0 0)
(0 0 0)
(0 0 0)
(0 0 0)
(0 0 0)
(0 0 0)
(0 0 0)
(0 0 0)
(0 0 0)
(0 0 0)
(0 0 0)
(0 0 0)
(0 0 0)
(0 0 0)
(0 0 0)
(0 0 0)
(0 0 0)
(0 0 0)
(0 0 0)
(0 0 0)
(0 0 0)
(0 0 0)
(0 0 0)
(0 0 0)
(0 0 0)
(0 0 0)
(0 0 0)
(0 0 0)
(0 0 0)
(0 0 0)
(0 0 0)
(0 0 0)
(0 0 0)
(0 0 0)
(0 0 0)
(0 0 0)
(0 0 0)
(0 0 0)
(0 0 0)
(0 0 0)
(0 0 0)
(0 0 0)
(0 0 0)
(0 0 0)
(0 0 0)
(0 0 0)
(0 0 0)
(0 0 0)
(0 0 0)
(0 0 0)
(0 0 0)
(0 0 0)
(0 0 0)
(0 0 0)
(0 0 0)
(0 0 0)
(0 0 0)
(0 0 0)
(0 0 0)
(0 0 0)
(0 0 0)
(0 0 0)
(-0.00183289236968 1.44138514161e-05 0)
(-0.00266592036222 2.09647771053e-05 0)
(-0.00107402760772 8.42981863018e-06 0)
(-0.0015808393303 1.24317082643e-05 0)
(-0.0896406729131 0.00114527451593 0)
(-0.0546147557342 0.000697773520698 0)
(-0.00248720797806 1.95593842988e-05 0)
(-0.00150279536362 1.18179711141e-05 0)
(-0.00150732365539 1.18535815655e-05 0)
(-0.000910285524631 7.14464117976e-06 0)
(-0.00755217311377 9.6217341681e-05 0)
(-0.0199686462784 0.000255125056039 0)
(-0.00443383870269 5.64886645193e-05 0)
(-0.000552074486844 4.33311747389e-06 0)
(-0.00012319939907 9.66966381534e-07 0)
(-0.000334864172693 2.62827903236e-06 0)
(-7.4752053956e-05 5.86713276785e-07 0)
(0 0 0)
(-0.000566895865319 5.41728578408e-06 0)
(0 0 0)
(-1.46293043708e-05 3.67881037531e-08 0)
(0 0 0)
(-8.88219302168e-06 2.23359245358e-08 0)
(0 0 0)
(0 0 0)
(0 0 0)
(0 0 0)
(0 0 0)
(0 0 0)
(0 0 0)
(0 0 0)
(0 0 0)
(0 0 0)
(0 0 0)
(0 0 0)
(0 0 0)
(0 0 0)
(0 0 0)
(0 0 0)
(0 0 0)
(0 0 0)
(0 0 0)
(0 0 0)
(0 0 0)
(0 0 0)
(0 0 0)
(0 0 0)
(0 0 0)
(0 0 0)
(0 0 0)
(0 0 0)
(0 0 0)
(0 0 0)
(0 0 0)
(0 0 0)
(0 0 0)
(0 0 0)
(0 0 0)
(0 0 0)
(0 0 0)
(0 0 0)
(0 0 0)
(0 0 0)
(0 0 0)
(0 0 0)
(0 0 0)
(-0.0370906017672 0.000473879987779 0)
(-0.0053475171105 6.8129248789e-05 0)
(-0.00862406646666 0.000109873639998 0)
(-0.000394692836337 3.09786173189e-06 0)
(-0.000600576328366 4.71379830958e-06 0)
(-9.16919706238e-05 7.19671148718e-07 0)
(-0.000140690551142 1.10425078516e-06 0)
(-0.021200470686 0.000270863192047 0)
(-0.00841892600518 0.000107260078367 0)
(-0.00495411053416 6.31171106396e-05 0)
(-0.000580352946946 4.5550692078e-06 0)
(-0.000339943030955 2.66814193131e-06 0)
(-0.000135779834762 1.06570759676e-06 0)
(-7.95344563358e-05 6.24249355363e-07 0)
(-0.00158400731083 2.01808102589e-05 0)
(-0.00174389471975 2.22178320833e-05 0)
(-0.00035140357011 3.35803042726e-06 0)
(-0.000123390161315 9.68463634599e-07 0)
(-2.68150714648e-05 1.68813649355e-07 0)
(-2.76238374053e-05 1.7390521624e-07 0)
(-3.53464329099e-06 -9.80175188331e-09 0)
(0 0 0)
(0 0 0)
(0 0 0)
(0 0 0)
(0 0 0)
(0 0 0)
(0 0 0)
(0 0 0)
(0 0 0)
(0 0 0)
(0 0 0)
(0 0 0)
(0 0 0)
(0 0 0)
(0 0 0)
(0 0 0)
(0 0 0)
(0 0 0)
(0 0 0)
(0 0 0)
(0 0 0)
(0 0 0)
(0 0 0)
(0 0 0)
(0 0 0)
(0 0 0)
(0 0 0)
(0 0 0)
(0 0 0)
(0 0 0)
(0 0 0)
(0 0 0)
(0 0 0)
(0 0 0)
(0 0 0)
(0 0 0)
(0 0 0)
(0 0 0)
(0 0 0)
(0 0 0)
(0 0 0)
(0 0 0)
(0 0 0)
(0 0 0)
(0 0 0)
(0 0 0)
(0 0 0)
(0 0 0)
(0 0 0)
(-0.00118858760938 1.51430241875e-05 0)
(0 0 0)
(0 0 0)
(-1.13389425426e-05 2.85138776346e-08 0)
(-1.75820293084e-05 4.42132791821e-08 0)
(0 0 0)
(0 0 0)
(-0.000650729084104 6.21840029583e-06 0)
(0 0 0)
(0 0 0)
(-1.66617590874e-05 4.18990887385e-08 0)
(-9.74502867227e-06 2.45056850815e-08 0)
(0 0 0)
(0 0 0)
(0 0 0)
(0 0 0)
(0 0 0)
(0 0 0)
(0 0 0)
(0 0 0)
(0 0 0)
(0 0 0)
(0 0 0)
(0 0 0)
(0 0 0)
(0 0 0)
(0 0 0)
(0 0 0)
(0 0 0)
(0 0 0)
(0 0 0)
(0 0 0)
(0 0 0)
(0 0 0)
(0 0 0)
(0 0 0)
(0 0 0)
(0 0 0)
(0 0 0)
(0 0 0)
(0 0 0)
(0 0 0)
(0 0 0)
(0 0 0)
(0 0 0)
(0 0 0)
(0 0 0)
(0 0 0)
(0 0 0)
(0 0 0)
(0 0 0)
(0 0 0)
(0 0 0)
(0 0 0)
(0 0 0)
(0 0 0)
(0 0 0)
(0 0 0)
(0 0 0)
(0 0 0)
(0 0 0)
(0 0 0)
(0 0 0)
(0 0 0)
(0 0 0)
(0 0 0)
(0 0 0)
(0 0 0)
(0 0 0)
(0 0 0)
(0 0 0)
(0 0 0)
(0 0 0)
(0 0 0)
(0 0 0)
(0 0 0)
(0 0 0)
(0 0 0)
(0 0 0)
(0 0 0)
(0 0 0)
(0 0 0)
(0 0 0)
(0 0 0)
(0 0 0)
(0 0 0)
(0 0 0)
(0 0 0)
(0 0 0)
(0 0 0)
(0 0 0)
(0 0 0)
(0 0 0)
(0 0 0)
(0 0 0)
(0 0 0)
(0 0 0)
(0 0 0)
(0 0 0)
(0 0 0)
(0 0 0)
(0 0 0)
(0 0 0)
(0 0 0)
(0 0 0)
(0 0 0)
(0 0 0)
(0 0 0)
(0 0 0)
(0 0 0)
(0 0 0)
(0 0 0)
(0 0 0)
(0 0 0)
(0 0 0)
(0 0 0)
(0 0 0)
(0 0 0)
(0 0 0)
(0 0 0)
(0 0 0)
(0 0 0)
(0 0 0)
(0 0 0)
(0 0 0)
(0 0 0)
(0 0 0)
(0 0 0)
(0 0 0)
(0 0 0)
(0 0 0)
(0 0 0)
(0 0 0)
(0 0 0)
(0 0 0)
(0 0 0)
(0 0 0)
(0 0 0)
(0 0 0)
(0 0 0)
(0 0 0)
(0 0 0)
(0 0 0)
(0 0 0)
(0 0 0)
(0 0 0)
(0 0 0)
(0 0 0)
(0 0 0)
(0 0 0)
(0 0 0)
(0 0 0)
(0 0 0)
(0 0 0)
(0 0 0)
(0 0 0)
(0 0 0)
(0 0 0)
(0 0 0)
(0 0 0)
(0 0 0)
(0 0 0)
(0 0 0)
(0 0 0)
(0 0 0)
(0 0 0)
(0 0 0)
(0 0 0)
(0 0 0)
(0 0 0)
(0 0 0)
(0 0 0)
(0 0 0)
(0 0 0)
(0 0 0)
(0 0 0)
(0 0 0)
(0 0 0)
(0 0 0)
(0 0 0)
(0 0 0)
(0 0 0)
(0 0 0)
(0 0 0)
(0 0 0)
(0 0 0)
(0 0 0)
(0 0 0)
(0 0 0)
(0 0 0)
(0 0 0)
(0 0 0)
(0 0 0)
(0 0 0)
(0 0 0)
(0 0 0)
(-7.14306219234 0.152041984583 0)
(-5.55030321733 0.117674535342 0)
(-6.41945290268 0.112769985188 0)
(-3.90156098577 0.0685383912378 0)
(-4.89804692864 0.103845749294 0)
(-5.67608625467 0.0997113262721 0)
(-8.10287504118 0.172779791765 0)
(-5.5501695569 0.117671701546 0)
(-2.62155542603 0.0555808042467 0)
(-3.04179380244 0.0534349339807 0)
(-3.03649076973 0.0533417760544 0)
(-3.81462258514 0.0808755706917 0)
(-3.81433418405 0.0808694561671 0)
(-4.42095900421 0.0776626122165 0)
(-1.59013339708 0.0337131506706 0)
(-3.36638374282 0.0713722525075 0)
(-1.4328166624 0.0251701688986 0)
(-2.3662183629 0.0415671574792 0)
(-2.97080855268 0.0629854806736 0)
(-1.26654134753 0.0222492245315 0)
(-1.80186360651 0.0382021403774 0)
(-0.751127958109 0.0159250098584 0)
(-0.354799747821 0.00752227289746 0)
(-0.67709477479 0.011894466535 0)
(-0.249558653566 0.00438397572082 0)
(-0.313116034888 0.00663851729732 0)
(-0.598351018552 0.0105111816416 0)
(-0.851125111028 0.0180450955627 0)
(-1.23841930673 0.0262562982187 0)
(-1.59004881068 0.0337113573155 0)
(-1.84548531234 0.0324194841045 0)
(-0.679772155735 0.0119414998592 0)
(-2.31368750224 0.0490535545704 0)
(-0.851099641983 0.0180445555817 0)
(-0.987981413893 0.0173557857811 0)
(-0.584988929413 0.0124026197766 0)
(-0.167600967915 0.00355338532871 0)
(-0.194700299633 0.0034202836657 0)
(-0.321239642492 0.00564318957938 0)
(-0.243858797124 0.0051701626951 0)
(-0.402044182037 0.00852392391113 0)
(-0.46679902286 0.00820021888032 0)
(-0.0362898218586 0.000771770737515 0)
(-0.130522468503 0.0027672669819 0)
(-0.03327343042 0.000583723109845 0)
(-0.0904274757605 0.00158638910085 0)
(-0.115189093192 0.00244217702838 0)
(-0.029374430171 0.000515322090715 0)
(-0.0411200902189 0.000874495402004 0)
(-0.00910278216417 0.000132073003802 0)
(0 0 0)
(-0.00867485164887 0.000107856538131 0)
(0 0 0)
(0 0 0)
(-0.00598171669721 2.77904945995e-05 0)
(-0.0103143709018 0.000149652042942 0)
(-0.0282631698372 0.000601069013641 0)
(-0.0616570283453 0.0013072190612 0)
(-0.0705427383676 0.00123754677823 0)
(-0.0143308614812 0.00017817908252 0)
(-0.0897108548535 0.00190200116042 0)
(-0.0194248046391 0.000413104695328 0)
(-0.0229102944067 0.000401920334926 0)
(-0.00521741635604 2.75199673096e-05 0)
(0 0 0)
(0 0 0)
(0 0 0)
(0 0 0)
(0 0 0)
(-0.00466416198252 2.16692590016e-05 0)
(0 0 0)
(0 0 0)
(0 0 0)
(0 0 0)
(0 0 0)
(0 0 0)
(0 0 0)
(0 0 0)
(0 0 0)
(0 0 0)
(0 0 0)
(0 0 0)
(0 0 0)
(0 0 0)
(0 0 0)
(0 0 0)
(0 0 0)
(0 0 0)
(0 0 0)
(0 0 0)
(0 0 0)
(0 0 0)
(0 0 0)
(0 0 0)
(0 0 0)
(0 0 0)
(0 0 0)
(0 0 0)
(0 0 0)
(0 0 0)
(0 0 0)
(0 0 0)
(0 0 0)
(0 0 0)
(0 0 0)
(0 0 0)
(0 0 0)
(0 0 0)
(0 0 0)
(0 0 0)
(0 0 0)
(0 0 0)
(0 0 0)
(0 0 0)
(0 0 0)
(0 0 0)
(0 0 0)
(0 0 0)
(0 0 0)
(0 0 0)
(0 0 0)
(0 0 0)
(0 0 0)
(0 0 0)
(0 0 0)
(0 0 0)
(0 0 0)
(0 0 0)
(0 0 0)
(0 0 0)
(0 0 0)
(0 0 0)
(0 0 0)
(0 0 0)
(0 0 0)
(0 0 0)
(0 0 0)
(0 0 0)
(0 0 0)
(0 0 0)
(0 0 0)
(0 0 0)
(0 0 0)
(0 0 0)
(0 0 0)
(0 0 0)
(0 0 0)
(0 0 0)
(0 0 0)
(0 0 0)
(0 0 0)
(0 0 0)
(0 0 0)
(0 0 0)
(0 0 0)
(0 0 0)
(0 0 0)
(0 0 0)
(0 0 0)
(0 0 0)
(0 0 0)
(0 0 0)
(0 0 0)
(0 0 0)
(0 0 0)
(0 0 0)
(0 0 0)
(0 0 0)
(0 0 0)
(0 0 0)
(0 0 0)
(0 0 0)
(0 0 0)
(0 0 0)
(0 0 0)
(0 0 0)
(0 0 0)
(0 0 0)
(0 0 0)
(0 0 0)
(0 0 0)
(0 0 0)
(0 0 0)
(0 0 0)
(0 0 0)
(0 0 0)
(0 0 0)
(0 0 0)
(0 0 0)
(0 0 0)
(0 0 0)
(0 0 0)
(0 0 0)
(0 0 0)
(0 0 0)
(0 0 0)
(0 0 0)
(0 0 0)
(0 0 0)
(0 0 0)
(0 0 0)
(0 0 0)
(0 0 0)
(0 0 0)
(0 0 0)
(0 0 0)
(0 0 0)
(0 0 0)
(0 0 0)
(0 0 0)
(0 0 0)
(0 0 0)
(0 0 0)
(0 0 0)
(0 0 0)
(0 0 0)
(0 0 0)
(0 0 0)
(0 0 0)
(0 0 0)
(0 0 0)
(0 0 0)
(0 0 0)
(0 0 0)
(0 0 0)
(0 0 0)
(0 0 0)
(0 0 0)
(0 0 0)
(0 0 0)
(0 0 0)
(0 0 0)
(0 0 0)
(0 0 0)
(0 0 0)
(0 0 0)
(0 0 0)
(0 0 0)
(-2.01698835785 -0.137149166982 0.0683159436028)
(-8.77724569103 -1.50219193978 0.642135001926)
(-2.7160062152 -0.143187822548 0.0735914117909)
(-0.917638257479 -0.0343950854586 0.0194236725314)
(-6.66601942179 -0.880317564538 0.388552716321)
(-1.12097680242 -0.00696634418817 0.010236677957)
(-2.1558621609 -0.257183591524 0.115068005986)
(-1.85450733087 -0.0208028988002 0.0227911436878)
(-3.68033405022 0.00629623654411 0.0272052422512)
(-2.67936421048 -0.0175586399125 0.02488391403)
(-1.44263864765 0.0253427108812 0)
(-4.56044047832 -0.27584507624 0.141657821873)
(-1.82300646924 0.0342506354317 0.0016506580996)
(-1.29975128358 0.0182757933808 0.00173986893695)
(-0.636008547424 0.00253323648092 0.00412544001535)
(-0.167582016132 0.00355298352323 0)
(-0.323367499539 0.00568056946383 0)
(-0.195681379766 0.00343751821726 0)
(-0.243828455803 0.00516951941478 0)
(-0.469650866431 0.00825031697468 0)
(-0.510951350653 -0.0131185476711 0.00904794755266)
(-0.751020762296 0.0159227371506 0)
(-0.354760644559 0.00752144385119 0)
(-0.680806953361 0.0119596780615 0)
(-0.250766695851 0.00440519729727 0)
(-0.851000749859 0.0180424589242 0)
(-0.313078140227 0.00663771387516 0)
(-0.601985992281 0.010575036917 0)
(-1.58992656008 0.0337087654242 0)
(-3.36607630726 0.0713657344246 0)
(-2.36282520741 0.0415075502043 0)
(-1.43603449295 0.0252266962551 0)
(-2.97044454124 0.0629777630993 0)
(-1.80164460406 0.0381974972058 0)
(-1.26499676437 0.0222220909701 0)
(-1.23821637318 0.0262519957311 0)
(-1.58993211205 0.0337088831341 0)
(-1.84087118216 0.0323384280705 0)
(-0.677468600513 0.0119010334998 0)
(-2.31334379797 0.0490462675379 0)
(-0.850998438719 0.0180424099247 0)
(-0.985464474916 0.0173115709274 0)
(-0.750979783912 0.015921868349 0)
(-0.354754227818 0.00752130780691 0)
(-0.678490615819 0.0119189871561 0)
(-0.249207951713 0.00437781497108 0)
(-0.850978491095 0.0180419870059 0)
(-0.313066147548 0.00663745961286 0)
(-0.597281825407 0.0104923992162 0)
(-0.584865355036 0.0123999998193 0)
(-0.167568488287 0.00355269671315 0)
(-0.319576357224 0.00561397078802 0)
(-0.193817781233 0.00340478053975 0)
(-0.401968818216 0.00852232608806 0)
(-0.243813096612 0.00516919377748 0)
(-0.465062970495 0.00816972179553 0)
(-0.276280137144 0.00585754246023 0)
(-0.96432924728 0.0204451886045 0)
(-0.412766861977 0.0072510404885 0)
(-0.411553263581 0.00722972130832 0)
(-0.516167648627 0.010943508099 0)
(-0.516152603675 0.0109431891241 0)
(-0.220686362315 0.00387677862691 0)
(-0.130509413106 0.00276699018841 0)
(-0.101650319126 0.00215513524255 0)
(-0.195209906417 0.0034292358849 0)
(-0.0429166107709 0.000752895544191 0)
(-0.243827400175 0.00516949703391 0)
(-0.0527972105083 0.00112283114123 0)
(-0.1027399719 0.00180238992931 0)
(-0.130502285521 0.00276683907319 0)
(-0.101635236785 0.0021548154749 0)
(-0.194020247453 0.00340833724667 0)
(-0.0425947912151 0.000747249792924 0)
(-0.243803002011 0.00516897975721 0)
(-0.0527914727526 0.00112270911716 0)
(-0.10236925323 0.00179588633013 0)
(-0.0616475842608 0.00130701883281 0)
(-0.00910166707081 0.000132056824822 0)
(-0.0202419028107 0.000355108154124 0)
(-0.0201643465992 0.000353747568443 0)
(-0.0249386965208 0.000530367888867 0)
(-0.0249372198816 0.000530336485381 0)
(-0.0484543126346 0.000850044666251 0)
(0 0 0)
(-0.036290296261 0.000771780826567 0)
(-0.00870444622778 0.00010822449472 0)
(-0.0143709730602 0.000178677799526 0)
(-0.0103152669316 0.000149665043511 0)
(-0.0194243792879 0.000413095649441 0)
(0 0 0)
(0 0 0)
(0 0 0)
(0 0 0)
(0 0 0)
(0 0 0)
(0 0 0)
(0 0 0)
(0 0 0)
(0 0 0)
(-0.00529939373109 2.46204861111e-05 0)
(0 0 0)
(-0.00803264784576 0.000116546338288 0)
(0 0 0)
(0 0 0)
(0 0 0)
(0 0 0)
(0 0 0)
(0 0 0)
(0 0 0)
(0 0 0)
(0 0 0)
(0 0 0)
(0 0 0)
(0 0 0)
(0 0 0)
(0 0 0)
(0 0 0)
(0 0 0)
(0 0 0)
(0 0 0)
(0 0 0)
(0 0 0)
(0 0 0)
(0 0 0)
(0 0 0)
(0 0 0)
(0 0 0)
(0 0 0)
(0 0 0)
(0 0 0)
(0 0 0)
(0 0 0)
(0 0 0)
(0 0 0)
(0 0 0)
(0 0 0)
(0 0 0)
(0 0 0)
(0 0 0)
(0 0 0)
(0 0 0)
(0 0 0)
(0 0 0)
(0 0 0)
(0 0 0)
(0 0 0)
(0 0 0)
(0 0 0)
(0 0 0)
(0 0 0)
(0 0 0)
(0 0 0)
(0 0 0)
(0 0 0)
(0 0 0)
(0 0 0)
(0 0 0)
(0 0 0)
(0 0 0)
(0 0 0)
(0 0 0)
(0 0 0)
(0 0 0)
(0 0 0)
(0 0 0)
(0 0 0)
(0 0 0)
(0 0 0)
(0 0 0)
(0 0 0)
(0 0 0)
(0 0 0)
(0 0 0)
(0 0 0)
(0 0 0)
(0 0 0)
(0 0 0)
(0 0 0)
(0 0 0)
(0 0 0)
(0 0 0)
(0 0 0)
(0 0 0)
(0 0 0)
(0 0 0)
(0 0 0)
(0 0 0)
(0 0 0)
(0 0 0)
(0 0 0)
(0 0 0)
(0 0 0)
(0 0 0)
(0 0 0)
(0 0 0)
(0 0 0)
(0 0 0)
(0 0 0)
(0 0 0)
(0 0 0)
(0 0 0)
(0 0 0)
(0 0 0)
(0 0 0)
(0 0 0)
(0 0 0)
(0 0 0)
(0 0 0)
(0 0 0)
(0 0 0)
(0 0 0)
(0 0 0)
(0 0 0)
(0 0 0)
(0 0 0)
(0 0 0)
(0 0 0)
(0 0 0)
(0 0 0)
(0 0 0)
(0 0 0)
(0 0 0)
(0 0 0)
(0 0 0)
(0 0 0)
(0 0 0)
(0 0 0)
(0 0 0)
(0 0 0)
(0 0 0)
(0 0 0)
(0 0 0)
(0 0 0)
(0 0 0)
(0 0 0)
(0 0 0)
(0 0 0)
(0 0 0)
(0 0 0)
(0 0 0)
(0 0 0)
(0 0 0)
(0 0 0)
(0 0 0)
(0 0 0)
(0 0 0)
(0 0 0)
(0 0 0)
(0 0 0)
(0 0 0)
(0 0 0)
(0 0 0)
(0 0 0)
(0 0 0)
(0 0 0)
(0 0 0)
(0 0 0)
(0 0 0)
(0 0 0)
(0 0 0)
(0 0 0)
(0 0 0)
(0 0 0)
(0 0 0)
(0 0 0)
(0 0 0)
(0 0 0)
(0 0 0)
(0 0 0)
(0 0 0)
(0 0 0)
(0 0 0)
(0 0 0)
(0 0 0)
(0 0 0)
(0 0 0)
(0 0 0)
(0 0 0)
(0 0 0)
(-0.0282590590508 0.000600981590103 0)
(-0.0616488422525 0.00130704550407 0)
(-0.0707841088839 0.0012417811943 0)
(-0.0143547114743 0.000178475615279 0)
(-0.089695910726 0.00190168432309 0)
(-0.022942148424 0.000402479156959 0)
(-0.0194221342767 0.000413047905092 0)
(-0.0362849618373 0.000771667380099 0)
(-0.130506575141 0.00276693001941 0)
(-0.0907902482632 0.00159275329868 0)
(-0.033370052827 0.000585418177986 0)
(-0.115170727439 0.00244178764757 0)
(-0.0411157867989 0.000874403881754 0)
(-0.0294513855958 0.000516672136664 0)
(-0.00521670316748 2.75162055002e-05 0)
(0 0 0)
(0 0 0)
(0 0 0)
(0 0 0)
(-0.00467642538546 2.17262336212e-05 0)
(0 0 0)
(-0.0091017256408 0.000132057674619 0)
(0 0 0)
(-0.00870755659807 0.00010826316671 0)
(0 0 0)
(-0.0103136675623 0.000149641838133 0)
(0 0 0)
(-0.00600272790992 2.78881107225e-05 0)
(-0.0362834752609 0.00077163576528 0)
(-0.130505233663 0.00276690157812 0)
(-0.0902594619544 0.00158344159769 0)
(-0.0333301871439 0.000584718805539 0)
(-0.11516591077 0.00244168552716 0)
(-0.041114641643 0.000874379527879 0)
(-0.0293249581606 0.000514454192354 0)
(-0.0282572927537 0.000600944026501 0)