/*--------------------------------*- C++ -*----------------------------------*\
| =========                 |                                                 |
| \\      /  F ield         | OpenFOAM: The Open Source CFD Toolbox           |
|  \\    /   O peration     | Version:  v1906                                 |
|   \\  /    A nd           | Web:      www.OpenFOAM.com                      |
|    \\/     M anipulation  |                                                 |
\*---------------------------------------------------------------------------*/
FoamFile
{
    version     2.0;
    format      ascii;
    class       volScalarField;
    location    "6.15";
    object      alpha.water;
}
// * * * * * * * * * * * * * * * * * * * * * * * * * * * * * * * * * * * * * //

dimensions      [0 0 0 0 0 0 0];


internalField   nonuniform List<scalar> 
28582
(
0.999998910686
0.999998049526
0.999999208543
0.999998112658
1.00000066989
1.00000055405
1.00000437424
1
0.0356723966636
0.0401769153773
3.65956497742e-05
1.0000025551
0.922147208583
0.908511501001
0.999998670942
0.999999650318
0.903201434586
0.999212953954
0.999135447935
0.999999626083
0.999995796249
0.999995795384
0.999999786983
0.999996944947
0.999996553811
1.00000130261
1.00000170147
1.00000387488
0.999999944612
0.0414192466539
1.54503817598e-05
1.17872342123e-06
1.00000297364
1.00000666955
0.93169100588
0.923497919709
0.999753922109
0.99999892023
1
1.0000070575
0.999198843034
0.88605512189
0.999068820655
0.999093611202
0.0377077980094
0.039974078088
0.000577788249534
0.000592506992522
0.0392364762764
0.000578876036624
0.999754568951
0.999716961832
0.918189706889
0.924634714209
0.999765956639
0.9207096274
0.999706024874
0.9996393242
0.999529063439
0.913579094651
0.91023401835
0.999531768133
0.915872453956
0.999636137687
0.999320888863
0.999417828444
0.898216360454
0.90462338446
0.999425463704
0.898810708298
0.999321751289
0.999237301922
0.890003366599
0.889350453244
0.999256426695
0.893978818026
0.893998780562
0.99926631518
0.999143754789
0.887803685378
0.884994450279
0.999207237455
0.891141958732
0.999249220159
0.892846275539
0.0335240199515
0.000327632567709
0.0314524887969
0.033483421168
0.000224749057037
0.000301988664697
0.0414460049489
0.000380877092606
0.000404402682968
0.0437923214926
0.000340947869426
0.0433584147336
0.000371801821857
0.999765534156
0.99981502675
0.92953993337
0.9310879415
0.999787448098
0.999792287219
0.929183683965
0.999732907286
0.999679827542
0.92672071461
0.923550587576
0.999738727729
0.999686399303
0.926680798913
0.926892952566
0.924156059665
0.999725924636
0.999741233097
0.923756710582
0.999711442278
0.926869503889
0.999231460665
0.887476312154
0.886531601123
0.999227953432
0.885626741261
0.999267156167
0.884756641722
0.999257707926
0.999359653857
0.885970183066
0.88501398494
0.999315348885
0.999308157452
0.884893069655
0.999088152323
0.999064464812
0.885161492807
0.882163822283
0.880741469047
0.999100577566
0.883821268477
0.881245331904
0.88229521144
0.999136631884
0.999140178864
0.884140153216
0.999179070619
0.883875227501
1.00000202007
1.00000095433
0.0455527508681
2.20866531635e-25
1.00000401875
0.920702557373
1.00000731264
1.00000708724
0.886170869558
0.883067938171
0.886961280764
1.00000687657
1.00000603009
0.888858475427
0.891302643503
0.0358780235072
0.0459280840509
0.0473825638292
0.000296149663126
0.000252127437638
0.000137591188961
0.0481082475754
0.048238583488
0.999622581533
0.9996905842
0.920205603807
0.916835569329
0.999668317351
0.915861751943
0.999633863657
0.99931416546
0.999367440393
0.886464459231
0.885103459926
0.999350294964
0.99931907352
0.885514549025
0.999189316669
0.999196779681
0.884357927244
0.883746071763
0.999189244396
0.88486180613
0.999202630545
0.999188781407
0.999195863914
0.887860404289
0.884920196491
0.999190287531
0.886037516971
0.999190579208
0.999227410994
0.999232117768
0.889212464662
0.890078550131
0.999201042969
0.890133888738
0.999236944568
0.999225642342
0.999230602351
0.891771549358
0.890698985384
0.999218325309
0.891038506746
0.999238105341
1.00000438695
1.00000076359
1.00000466176
1.00000330491
0.0269040603451
0.0275132034993
0.029493662913
0.0302276379563
0.0295754236239
4.32680692493e-07
2.58837738242e-05
3.92910790963e-25
1.38858456525e-05
7.05296610493e-38
8.27145560776e-06
1.00000724847
1.00000834464
0.953664409791
0.947989693556
1.00000964142
0.94544991107
1.00000153007
0.999997111565
0.943706981849
0.93552920918
1.0000063433
1.00000140858
1.00000338398
0.94291600872
0.944546122593
0.934255691884
0.935292696524
1.0000049708
1.00000765389
0.945028780616
0.942489393345
0.935705517521
0.936396969871
1.00000313922
1.00000357198
0.933041771728
0.933283389478
0.932091284411
1.0000064169
1.00000549244
1.00000647494
0.933489322272
0.934589965636
0.932213075411
0.933308396233
0.932720219083
0.933373714872
0.0234832418188
0.0242818217414
0.0255539062492
6.06614159299e-05
7.0839759582e-05
8.02804357428e-05
8.80644844477e-05
0.000114927698582
0.000367656384677
0.00014548912278
0.000384007034011
0.0257603681437
0.026785823116
0.0277180426822
0.0286303429942
0.0290079773829
0.000106046014575
9.82206153707e-05
0.000110973802737
8.79372751241e-05
0.0277743560501
0.028972077825
0.0289646368138
0.000122764412981
0.000264822314207
9.79823314482e-05
0.000147854776041
0.0298493137761
0.029751325792
0.000104679306305
7.29515673609e-05
6.77001829613e-05
0.0301412277662
0.0302779925253
0.0302321702276
7.87602533442e-05
9.42557369822e-05
7.33795913862e-05
8.01633901815e-05
0.99998600689
0.999957737102
0.955104141689
0.95399318365
0.999959457015
0.955792844704
0.999984588309
0.999975685052
0.999924065025
0.952033697706
0.950731328774
0.999954422548
0.99995023302
0.95427738038
0.999934541006
0.999909858699
0.949381737389
0.944918910125
0.999909271462
0.999902919906
0.946670879594
0.999819510459
0.999868872
0.945716449754
0.939654016537
0.999868416524
0.999815331843
0.941028882992
0.999759523266
0.999787025175
0.93829349334
0.93739099595
0.999765171695
0.999771161723
0.939119237311
0.999835829761
0.999865983339
0.943507917117
0.94005478952
0.999875034256
0.999820461215
0.940408573319
0.999868851676
0.999909706546
0.944079238802
0.941135269217
0.99989925748
0.999889958204
0.94073443404
0.999815546895
0.999796213585
0.937915292177
0.934289314286
0.999814169628
0.999781174205
0.937813703006
0.999807320369
0.999799000497
0.938268618886
0.93480961157
0.999810150939
0.9997831976
0.937923982949
0.999959830035
0.99992886791
0.944985528881
0.941655688635
0.999944745354
0.999920708059
0.942009380721
0.999966970617
0.999964113415
0.944151718397
0.941354111073
0.999968457576
0.941850758474
0.999964685352
0.999911743178
0.999824485066
0.939005865447
0.936272225331
0.999848974696
0.999864885697
0.9394643154
0.999940260624
0.999910846102
0.938767811303
0.936434656118
0.999909985677
0.939331391218
0.999943972378
0.99980909561
0.999805693198
0.932860466535
0.933219376036
0.999779000777
0.9998183646
0.931904570079
0.999794039956
0.999779884374
0.933111746839
0.932043151468
0.999774662666
0.999789725872
0.931832202514
0.999796769262
0.999824704294
0.931953911775
0.932100309951
0.999801711989
0.999828853616
0.931844965443
0.99981931887
0.999802530804
0.934022736157
0.932483197243
0.999839301176
0.999796706869
0.932970175725
0.999844378519
0.999898802187
0.934525078621
0.933756724335
0.999885128798
0.933373452655
0.999867384709
0.999842095747
0.999831043201
0.932238465276
0.932558674751
0.999820193818
0.999842522642
0.932553952626
0.999865529702
0.999867413454
0.933505151932
0.933033812355
0.999855183054
0.93293806292
0.999871725224
0.999864751942
0.999850626397
0.932981647611
0.933337727304
0.999853927301
0.999855029387
0.933539344722
0.999862133974
0.933207444525
0.999859177366
0.999998988077
0.999997071312
0.999994285712
0.999996243853
0.999993388887
0.999992264769
0.999999313356
0.999997850216
0.999997346496
0.999996217883
0.999995775386
0.99999429731
1.00000683059
1.00001288733
1.00001257602
1.00000022487
0.999954318307
0.999892815229
0.99993789355
0.999987899036
1.00000358439
1
0.99999522726
0.999983338995
0.999983585572
0.999987937681
0.999986167233
0.999986405727
1.00000019227
0.999999415661
0.999995884006
0.999993807078
0.999994928883
0.999996719078
0.999997525153
0.999997546533
0.999999848846
0.999998408781
0.999994969738
0.999993854586
0.999996657937
0.999998897237
0.999999442807
0.999998748457
0.99999646235
0.999998547401
0.99999845652
0.999997056158
1.00002487112
1.00006556478
1.0000148542
0.999854216883
0.999741508777
0.999811742805
0.999953870732
0.999995221052
1.00001273088
1.00002737217
1.00001070829
0.999989056442
0.999908218156
0.999897664708
0.999954100555
0.999994780874
1.00000144385
1.00000144734
1.00000046371
0.999997208335
0.999989527894
0.99998824117
0.999990987761
0.999997277517
1.0000000677
0.999999501194
0.999998605534
0.999998678533
0.999999189406
0.999999573189
0.999999433411
0.999998894019
0.999998152104
0.999999211525
0.999999479462
0.99999940557
1.00001557064
1.00007700236
1.00002349148
0.999891294934
0.999803793292
0.999899912337
0.99998583762
0.999999071612
1.00000377782
1.0000483165
1.00002609283
1.00000671852
0.999979623925
0.999969586208
0.999982729401
0.999997209137
1.0000060417
1.0000064562
1.00000552158
1.00000327764
1.00000119984
0.999999961051
0.999999576023
1.00000022385
1.00000111863
1.00000113039
1.00000104157
1.00000086909
1.00000115338
1.00000152899
1.00000149841
1.00000111179
1.00000115313
1.00000130167
1.00000147818
1.00000192191
1.00000203951
1.00000193926
1.00000165668
1.00000183263
1.00000169222
1.00000147516
1.00000170934
1.00000534272
1.00007367984
1.00007390552
1.00002869744
0.999935420545
0.999953553093
0.999996165671
0.999996112457
1.00001539402
1.00001641253
1.00001708105
1.0000152322
0.999994859281
0.999990556441
0.999998170962
0.999999538116
0.999998100022
1.00000667228
1.00000641649
1.00000759788
1.00000788416
1.0000051289
0.999997693962
0.999994738135
0.999999513386
1.00000144006
0.999999587539
1.0000037308
1.00000343281
1.00000375252
1.00000071513
0.999998684376
1.00000057638
1.00000266914
1.00000184329
0.999999977521
0.999999359368
0.999999015339
0.999999053318
1.00000079909
1.00000097722
0.999999822324
0.999999796717
0.999999111719
0.999999707581
0.999999751608
0.0327906190701
0.0352401257344
0.0424632046972
0.0467819460612
0.0488633145432
0.0518918972516
0.0524158072818
0.0538310757125
0.0281194775852
0.0288814719821
0.0319218302154
0.0348042867746
0.0406253611689
0.0467271914046
0.0496490477171
0.0533474379134
0.0532855360369
0.0541622761547
0.0300244078873
0.029633450396
0.0300780732242
0.0331506174059
0.0393537017824
0.0448882615141
0.0483737721392
0.052243525338
0.0520958536325
0.0529212523186
0.0296228906688
0.0304669467952
0.0342014221105
0.0403277765208
0.0428864257562
0.0455051551157
0.0484194561088
0.0492200391199
0.0509506770601
0.0358461465877
0.0402234523099
0.041684206024
0.0444057025436
0.0470934789711
0.0476973596744
0.0489841425441
0.0476528091897
0.0478191627185
0.047715969106
1.63901993763e-05
1.47462874624e-06
2.48371718145e-06
1.01236624148e-05
3.27416646639e-05
6.09514253597e-05
1.72101037492e-05
-2.59061636437e-28
-4.01282321816e-25
7.98437987415e-05
1.25436612176e-05
3.13694212895e-06
8.73921973098e-07
4.64467404474e-06
2.91762797249e-05
6.09317563384e-05
8.30377496937e-05
-1.45752154584e-26
-7.38354742886e-26
9.51310535116e-05
2.09474479662e-05
2.16786825868e-06
4.23781164821e-07
2.60803231329e-06
7.25587271671e-06
2.17825333312e-06
4.48861903297e-05
0
-8.30476464747e-28
6.17151632192e-05
1.17549435082e-38
1.88250277974e-06
6.30422140944e-06
4.6903952803e-06
6.87970635321e-07
4.04266780394e-05
0
-2.47504690469e-26
4.9603216157e-05
2.23627488126e-05
3.46843839494e-05
4.89375189539e-05
4.56152025407e-05
-5.29091856853e-28
-3.55285416069e-27
6.13793377316e-05
-1.06437621471e-26
-4.34470774429e-26
7.21603479832e-05
1.00000926593
1.00000401099
1.00000296124
1.00001881142
1.00004113774
1.0000107441
1.00002215957
1.00001286036
1.00000015089
0.999996622694
1.00005259145
1.00005336354
1.0000279127
1.00002682569
1.00000140161
1.00000160175
1.00000054837
1.00000679517
1.0000060829
1.00000214319
1.00000036074
0.999997849519
0.999999369307
0.999997932196
1.00000184617
0.999999806297
0.999999202326
0.999998088932
1.00005181556
1.00000903771
1.00003920811
1.00001727146
1.00005164885
1.00001272474
1.00004805955
1.0000542839
1.00005564564
1.00004979591
1.00007048438
1.00006326265
1.00006534441
1.00005644893
1.0000207592
1.00000636041
1.00000484999
1.00000860896
1.00002619937
1.00000495439
1.00000879245
1.00002630543
1.00000162455
0.999999869343
1.00003932908
1.0000425178
1.00001198733
1.00001435113
1.00005505016
1.00001658636
1.00004822399
0.999997135315
1.00004818007
0.999994790665
1.00004595425
1.0000695533
1.00006496534
1.00006034271
1.00007635926
1.00007317358
1.00007879645
1.00007833212
1.00002815098
1.00000875851
1.00001673834
1.00002032743
1.00003625061
1.00001494977
1.00001606435
1.00005819829
1.00002223057
1.0000262293
1.00004909916
1.00005469716
1.00001547995
1.00001563057
0.999975207355
1.00000324021
0.914563797415
0.918285587434
1.00004454124
1.00001955176
1.00003884646
0.914679515648
0.916095246884
0.916570465577
0.917344060918
1.00008353885
1.00005452671
1.00006214983
0.91696276174
0.9161018155
0.917907064739
0.91479762358
1.00006274666
1.00006468452
1.00005126925
0.913294289417
0.891151687414
0.910184728323
0.882460820719
1
1.00002239124
1.00000211789
0.879538837594
0.860785725305
0.872630562065
0.860046589666
0.999931736502
0.99999431839
0.999981229369
0.863239349949
0.878513846441
0.861708011096
0.874965707285
0.999985659495
0.999983214202
0.999985724014
0.880677479681
0.885424602745
0.87736020223
0.882614926724
0.999996346634
0.999989490938
0.999991736536
0.885395406321
0.88159601176
0.882390762146
0.87505874278
0.999996827172
0.999996011009
1.0000013452
0.880765096552
0.856314199856
0.87349822806
0.853991271615
1.00001115666
1.00001101698
0.939684217645
0.930513748578
0.935815368185
0.932127723146
1.00001701446
1.00001335037
1.00001469943
0.92746268774
0.91990759014
0.930348321367
0.926010840645
1.00001752981
1.00001664851
1.00001700399
0.917840865826
0.918430990372
0.925451116022
0.924180734169
1.00001703524
1.00001776776
1.00001619129
0.919125086928
0.916983797486
0.924339010894
0.924203748837
1.00000005111
1.00001215518
1.00000153646
0.912039108666
0.885368856787
0.918736005684
0.888347408175
0.999992154775
0.999999015379
0.999989847858
0.875300203705
0.861858945854
0.879338837685
0.86855328815
0.999995554592
0.999992603261
0.9999973931
0.862971923352
0.87412469476
0.869186334027
0.87570965681
0.999999989708
1.00000130313
1.00000356079
0.876555939579
0.881683837952
0.877636565634
0.882058549837
0.999996566644
1.0000024502
1.00000036157
0.881468659805
0.873577021465
0.881789699633
0.873556422017
1.00000201975
0.999999477713
1.00000102654
0.872210406744
0.854995207804
0.872206507829
0.856265733539
1.00000694804
1.00000693617
1.00000636975
0.934180523399
0.932162913469
0.933202176256
0.932586362301
1.00000785026
1.00000597009
1.000005822
0.931131285033
0.927642109011
0.932232330842
0.931223481812
1.00000983053
1.00000819542
1.00000901267
0.927600864329
0.925907692775
0.931226067439
0.929343670576
1.00001048469
1.00000942305
1.0000104604
0.925904458828
0.924983639839
0.928817676388
0.920208144063
1
1.00000412153
0.999999069074
0.919202019183
0.888316988327
0.912178412567
0.884727357547
0.999997812017
0.999998408003
0.999997178354
0.87948124172
0.869795155325
0.878579877057
0.876024210767
0.999997705134
1.00000326036
1.00000373303
0.870405913786
0.876552182005
0.877359322651
0.88338159245
1.00000140557
1.00000522994
1.00000642415
0.878406320027
0.882937895242
0.885212432875
0.888002000509
0.999999992325
1.00000555124
1.00000415531
0.882906155911
0.875577061825
0.888035165261
0.88145137995
1.0000010616
1.00000157955
1.00000200656
0.87383565517
0.855855926557
0.879095969616
0.858217525526
0.933322369118
0.932894993346
1.00000441296
1.00000748359
0.932740170519
0.931870796379
0.933088013165
1.00000576736
1.00000746616
1.00000750327
0.931782396003
0.930081797669
0.93208128417
0.924850912373
1.00000329217
1.0000049433
1.00000298552
0.928250660701
0.915730624356
0.92149544241
0.908537848007
0.999997658883
0.999999378386
0.999996147023
0.90867309559
0.88470408134
0.90248607086
0.885549304492
1.0000007762
0.999999303624
1
0.880198550694
0.878571724682
0.883305012811
0.884602192343
1.00000325867
1.00000666013
1.00000638211
0.879943989581
0.885490172858
0.885659912585
0.889672383379
1.00000312778
1.00000592697
1.00000612501
0.887117751791
0.889465003876
0.890904281603
0.89306468796
1.00000071218
1.00000516132
1.00000441917
0.889641072031
0.883746107911
0.892388099172
0.885062954101
1.00000084096
1.00000349941
1.00000241915
0.881086668633
0.859493392654
0.883075718814
0.864688337593
0.999998388932
1.00000177028
0.920207470293
0.907371688205
0.907076424464
0.999997769237
0.999999923603
0.999999209023
0.901461596035
0.885677238955
0.901779224925
0.889155267659
1.00000130524
1.00000116521
1.00000428554
0.884048976551
0.885634756839
0.8874947666
0.887022877838
1.00000168301
1.00000598032
1.0000039726
0.88653864001
0.889881127263
0.887162667138
0.889368400084
1.00000016043
1.0000022063
1.00000289252
0.891233434804
0.893173835983
0.89064491975
0.892850187362
0.999999773501
1.00000232884
1.00000222818
0.892360063804
0.885908556072
0.891939166914
0.886968019268
1.00000116029
1.00000338944
1.0000027501
0.885133976907
0.867783449538
0.887640716824
0.875690880164
0.999999739015
0.888727537494
0.99999988624
0.890154581591
0.892644560906
1.00000014181
0.891689829649
0.887062767372
1.00000116919
0.888486824274
0.877759903278
0.000397501330577
0.000323283390491
0.000407922979182
0.000299086075226
0.0311932399351
0.0304849518564
0.000152422007331
2.7623393073e-05
0.000122416765563
4.04395263498e-05
0.0341320331067
0.0324949933387
0.0339446623213
3.93799520539e-05
0.000133484555907
3.42376783255e-05
9.68802825311e-05
0.0380133584036
0.035330864312
0.0383489729987
0.000237411318475
0.000308093415442
0.000243437903902
0.000372693531763
0.0452833154362
0.042121880077
0.0450802102233
0.000486788738923
0.000744730205997
0.000564922716165
0.000778172844694
0.047290200276
0.0473445253651
0.0479399095048
0.000946820930185
0.00099406704994
0.00101016111671
0.00114294989695
0.0496711383669
0.0495933079152
0.0507989293749
0.000605793276511
0.000219965951018
0.000814846252008
0.000271087249976
0.0519705438057
0.0529299810916
0.0526966157001
6.17859621669e-05
4.69137007775e-05
6.56975950853e-05
5.40094779372e-05
0.0535543201501
0.0530366633311
0.0541018496389
5.91657715722e-05
7.55381494401e-05
7.13271882231e-05
9.12406298044e-05
0.0529378794876
0.0542494859336
0.053215642804
0.000216053200003
0.00155465883249
0.000264130337257
0.00175744159506
0.0285761693102
0.0291693290494
0.0292451762712
0.000325312650493
0.000237460233587
0.000261765184961
0.000253356537231
0.0298621464762
0.0293400952581
0.0297542509898
0.000125481402901
7.34355917368e-05
0.000183577662636
0.000108231056371
0.0333409593469
0.0309104819876
0.0321487639601
2.78574248051e-05
2.38070065568e-05
5.05968719131e-05
2.27520650267e-05
0.0373126177359
0.0337493062428
0.0360006285719
8.6042195891e-05
0.000327013333548
3.30213696497e-05
0.000171201309101
0.0437964951733
0.0395526294795
0.0430757738282
0.000556098257999
0.00074016157372
0.000509898929572
0.000712430482738
0.0479753653673
0.0457620215043
0.046895191934
0.000997361057098
0.00118182638484
0.000865541352929
0.000968883427391
0.0513892548213
0.0489737907402
0.0512226561233
0.00123691334209
0.000368754189133
0.00119191814317
0.00037909139951
0.0529943732424
0.0532175121167
0.0529019638653
6.98755287214e-05
5.94704188504e-05
6.84053404491e-05
5.96871959923e-05
0.0541498259191
0.0530289025252
0.053673557295
8.0143849525e-05
0.000103938684864
8.24069226963e-05
0.000103103653666
0.052954105357
0.0536880272533
0.0525470064459
0.000321889047196
0.0019678299732
0.000326473102623
0.00201502442199
0.0298638611654
0.0300882809156
0.0299597684831
0.000183100549028
0.000288446646684
0.000122773665565
0.000222254234846
0.0297577324199
0.0297772955997
0.0297262366099
0.000228591084436
0.000130481203399
0.000200194778216
0.000128338542967
0.0313670403997
0.0300796311848
0.0313086279044
5.14495632332e-05
2.56202603197e-05
6.24226358849e-05
3.81459374204e-05
0.0355923496037
0.0332734545004
0.0364757263503
2.49020932311e-05
0.000131064611192
4.58271358514e-05
0.000233784002528
0.0425231280179
0.0398997492829
0.0423189269929
0.000410563272845
0.000578234654423
0.000390302432405
0.000548144632025
0.0463198537696
0.0438571584863
0.0451382934671
0.000545312382496
0.000531613009401
0.000508161655304
0.000460076393353
0.0505568657928
0.047028442693
0.0491684854855
0.000786207373052
0.000287517214838
0.000642181417264
0.000238503818362
0.0521817696178
0.0502921563078
0.0505990811502
5.3639723558e-05
4.56954157543e-05
4.08044635669e-05
3.45902133491e-05
0.0528345149299
0.0506637373355
0.0516751822122
6.66203230249e-05
8.26287525502e-05
4.99706421067e-05
6.2580972885e-05
0.0530834420902
0.05190051361
0.0524458139746
0.000244789450198
0.00148737980242
0.000199733555435
0.00131603765355
0.0298618649856
0.0300082706538
0.000163026589515
9.36196069547e-05
0.000114868504008
0.0317927990577
0.0310862208063
0.0328154665036
6.65282829797e-05
7.16438131826e-05
0.000148087986834
0.000216655924674
0.0374396834996
0.0351893721087
0.0380987270269
0.000204953413811
0.000337319923032
0.00030525881988
0.000383862688441
0.042167243987
0.0404909211124
0.0417823983736
0.000410207579907
0.000524442032973
0.000437305671154
0.000508114571147
0.0439639079938
0.0422353848998
0.0431183727162
0.000470110604968
0.00041906540539
0.000440319147506
0.000411118900754
0.0476174333034
0.0445939450852
0.0466293732358
0.000626540634198
0.000242799184161
0.000671552934346
0.000275379099966
0.0489735158563
0.0473354875688
0.0477781959244
3.80812902396e-05
3.17374049802e-05
5.02244216265e-05
4.10594795976e-05
0.0504736732407
0.0482407260204
0.0494439713353
4.15683569451e-05
5.61637541572e-05
5.87843389388e-05
8.21625770337e-05
0.0522533666887
0.0500242224291
0.0514119110123
0.00017059966192
0.00113942933706
0.000190489619707
0.00104425521325
0.038247852314
0.0381571338825
0.000378779542694
0.000453159254536
0.000395588289968
0.000476467265901
0.0413383444467
0.0397268556613
0.0406828513553
0.000532017628538
0.000640525169528
0.000589660845602
0.000671983894381
0.042784941516
0.0411073647405
0.042646475073
0.000678782502006
0.000716991855136
0.000759669470719
0.000838665127403
0.0463532435104
0.044775227485
0.0464454137149
0.00081064523981
0.000352051817699
0.00074632877108
0.000374168402742
0.0472034138161
0.0472118337925
0.0471194141995
7.47037393179e-05
6.60360357361e-05
0.000116430682137
9.75335361876e-05
0.0486300269042
0.0475058856803
0.0480678665724
8.69599791601e-05
0.000102805959947
0.000123448424802
0.000135493065726
0.049876246393
0.0480783428615
0.0482640872812
0.000205425110836
0.00119636748535
0.000265321488621
0.00131937207056
0.0468868606022
0.000169468003095
0.0475169817078
0.000111810904224
0.000113287671403
9.19728146768e-05
0.000105004103582
0.0481732298476
0.000138700500257
0.00015863370534
0.000148150665721
0.000192849662195
0.047242671809
0.000291453697066
0.00153355513543
0.000378664943899
0.00159550364533
1.00000847806
0.999982190082
0.915570834535
0.914825219999
1.00000103343
0.916693140268
1.00000991533
1.00000283138
1.00000491471
0.916001518732
0.920559028641
0.999981811749
1.00002020239
0.91840687525
0.99992072308
0.999941620365
0.914930050428
0.914614553297
0.999966432785
0.914930581131
0.99991152822
0.999891893215
0.999882748441
0.915154269793
0.916399656861
0.99988624039
0.915466971249
0.99988874419
0.99988907885
0.999951138323
0.915353473606
0.916601355598
0.999933270061
0.999893643982
0.915592852585
0.999862147072
0.999860353857
0.916841921034
0.916791603441
0.999862491741
0.999878774823
0.916016333064
0.999875649175
0.999884240626
0.917076103422
0.917134804958
0.999887685785
0.916556156961
0.999878038254
0.999810089258
0.999674855956
0.917060356126
0.914451309348
0.999687133618
0.915796264065
0.999817015594
0.999874357075
0.999857125072
0.917602498302
0.918292286214
0.999866914417
0.999861816053
0.916973363299
0.999853211734
0.999754878743
0.913939939632
0.917128328843
0.999770496452
0.999835073966
0.915687832614
0.999390731472
0.999545627585
0.909211474463
0.911563901066
0.999484566724
0.906497984231
0.999448985726
0.999286326074
0.999250854963
0.901361374408
0.886149286585
0.999063569007
0.897417538692
0.999363023624
0.999362879852
0.999630959865
0.909959024554
0.902665538941
0.999613406289
0.999376297467
0.903545726801
0.999139020835
0.998784738916
0.88373644096
0.893154270789
0.998913895667
0.999088505607
0.894755186672
0.998711422522
0.999054885334
0.86745343119
0.874137726342
0.998834284002
0.863778529115
0.998858518639
0.99860717135
0.998821580473
0.862036944395
0.859321076451
0.998734243532
0.859502221415
0.998693309089
0.998568762164
0.99852969488
0.872350220524
0.863293432184
0.998721770395
0.998340903241
0.862882411142
0.998449013693
0.998375016584
0.859921783624
0.859270774638
0.998515283249
0.998257417036
0.85940948702
0.998901100505
0.998905468257
0.868262891428
0.861430388948
0.998846851577
0.866198726207
0.998935257209
0.99895226279
0.999156090133
0.873706886181
0.876973071447
0.999078176758
0.871801352818
0.999002680409
0.998669971896
0.998526409315
0.861475483911
0.865666815604
0.998585672005
0.998621814081
0.865623111893
0.998787541163
0.998892627234
0.875662513679
0.870445748163
0.998984702652
0.998729936685
0.870771279346
0.999119810968
0.999198595341
0.882063341922
0.879360045251
0.999131971875
0.880848279963
0.999171884761
0.99907764704
0.999086619517
0.883505526065
0.884303879695
0.999034521387
0.882419954442
0.999110383606
0.999092702606
0.998999847876
0.878199166864
0.879246460697
0.999086434262
0.999004949106
0.879892267712
0.999078487481
0.999017959358
0.883301376445
0.881081836401
0.999061600449
0.999005097699
0.881527965649
0.99890461624
0.99907102367
0.885161275448
0.884276875772
0.998994305371
0.884041765873
0.999015146509
0.998783581633
0.998827764117
0.88371397643
0.8802381988
0.99862154533
0.882569858893
0.99890735019
0.998960143689
0.999019308478
0.883192044163
0.881691922122
0.999031071701
0.998985140182
0.882892698036
0.998865878563
0.99874281205
0.877326945246
0.878824651402
0.998739443963
0.998886169679
0.880565913334
0.998214536992
0.998754699027
0.874687870798
0.879305027826
0.998480165194
0.873151176152
0.998551091379
0.997532994057
0.99818586595
0.849515285106
0.855540513655
0.848368246814
0.997896931968
0.997911215761
0.998325641996
0.998595899641
0.875991179065
0.867411043226
0.99860862141
0.998307632333
0.869645846889
0.997733951129
0.998049558494
0.855670486025
0.843493613564
0.997680482661
0.845444041417
0.998074346829
0.999918755024
0.999966312884
0.93708888729
0.939791389307
0.999967584727
0.937105731575
0.999934736018
0.999917157388
0.999979085905
0.934307388392
0.931059860486
0.999968007241
0.999923167836
0.933850611017
0.999889343748
0.999894853783
0.937680961105
0.934878384607
0.999852996609
0.935748571944
0.999920614388
0.999885008062
0.999843948971
0.931576136283
0.933878086374
0.999889413819
0.99983804688
0.933586935279
0.999949883428
0.999974881729
0.9248958934
0.929434772165
0.999982467888
0.999946096891
0.926997494048
0.99993558905
0.999972327253
0.922887907944
0.922425775829
0.999995828285
0.999914762868
0.924711549091
0.99989784759
0.999855877141
0.929973552826
0.928713693725
0.999897313786
0.999858266662
0.927570154284
0.999898414018
0.999865125398
0.924504533448
0.9272455462
0.999872257075
0.999859414896
0.925923822274
0.999810902995
0.99989424333
0.917782386952
0.920189308139
0.999817012069
0.999850024736
0.91969826954
0.999801355908
0.999812580503
0.917977031145
0.920156789974
0.999809845381
0.999805494457
0.919812975192
0.999800847551
0.999866455256
0.922686724586
0.924719536815
0.99982516344
0.999855510943
0.922021650259
0.999801473425
0.999855735539
0.92234621932
0.924177527515
0.999803588547
0.999852731781
0.922100868745
0.999814405333
0.999819627557
0.920830663387
0.920666092395
0.999842326185
0.999818671696
0.921413597429
0.999795789507
0.999767282991
0.919676196409
0.91959051005
0.999823395125
0.999745642562
0.92110695381
0.9998074013
0.999855240279
0.922648435633
0.924633593702
0.999805092572
0.99984610365
0.923048340274
0.999786563732
0.999824808852
0.922563678736
0.925092948011
0.999769248994
0.999849972407
0.923745139161
0.999513919041
0.99968166259
0.904753910262
0.914231302166
0.999482193193
0.999661490783
0.906352965309
0.999276108631
0.998827995268
0.895358227086
0.887144211587
0.999203967819
0.998919500224
0.89713218652
0.999582580137
0.999763725052
0.916727033811
0.91000446758
0.999709423156
0.999641962073
0.908115544629
0.999401984089
0.999222114743
0.887646940148
0.89912780951
0.999121009082
0.99946832282
0.898077220884
0.998202084081
0.998427658556
0.866252715153
0.877734855502
0.998125544263
0.998526749201
0.869040064317
0.997935624958
0.998030851851
0.861982764038
0.863823204276
0.997954724006
0.997980503918
0.865463356873
0.998549161399
0.998954883644
0.878619254607
0.871847037382
0.998800532619
0.998730422252
0.870866199057
0.998281418558
0.998466870407
0.866482880873
0.869383459281
0.99830106201
0.998505139445
0.867782048875
0.998231998751
0.998178030532
0.866152696142
0.864528605862
0.998356002897
0.998079047517
0.867055134953
0.998380355993
0.998689512702
0.870169251063
0.874412764278
0.998524389986
0.998547322645
0.870622916509
0.998386525336
0.998450619131
0.866969844492
0.870649419839
0.998342762931
0.998454472779
0.868769158968
0.998443077113
0.998538716658
0.87481538849
0.872797633967
0.998541982867
0.99847157
0.871606658762
0.998783802175
0.998810802868
0.878627005937
0.87658499239
0.998873845438
0.998685850504
0.878462654312
0.998850418648
0.998976358533
0.880481074854
0.881438870455
0.998932717801
0.998930305284
0.880083736598
0.998753057129
0.998642459744
0.87674292347
0.87931834843