/*--------------------------------*- C++ -*----------------------------------*\
| =========                 |                                                 |
| \\      /  F ield         | OpenFOAM: The Open Source CFD Toolbox           |
|  \\    /   O peration     | Version:  v1906                                 |
|   \\  /    A nd           | Web:      www.OpenFOAM.com                      |
|    \\/     M anipulation  |                                                 |
\*---------------------------------------------------------------------------*/
FoamFile
{
    version     2.0;
    format      ascii;
    class       volVectorField;
    location    "6.15";
    object      U;
}
// * * * * * * * * * * * * * * * * * * * * * * * * * * * * * * * * * * * * * //

dimensions      [0 1 -1 0 0 0 0];


internalField   nonuniform List<vector> 
28582
(
(0.812121258254 0.0016124584925 -0.000751222824953)
(0.814027577357 -0.000145316585924 -0.000760415716928)
(0.812143938632 0.00158654182034 -0.00234782534767)
(0.814285273985 -0.000253804988304 -0.00203895991144)
(0.811971361234 0.000910446128986 -0.00543500000042)
(0.815310388214 -0.00049416745095 -0.00525324615718)
(0.809405503128 0.000595150245423 -0.00697661671212)
(0.814923880482 -0.00110364557973 -0.00815503980552)
(0.240706112796 0.155537819231 -0.0125991087772)
(-0.140965098761 0.0704827433888 -0.0095298299477)
(-0.0879683709253 -0.182555747808 0.364930165382)
(0.812645758093 -0.000549801164331 -0.0097253289524)
(0.7910057039 0.00332884472712 -0.00482683949602)
(0.789921603715 0.00210716340771 -0.00925462833255)
(0.8191478366 -0.00181116790104 -0.00603053809196)
(0.819179950842 -0.00132785272058 -0.0061200864997)
(0.789541575435 0.00240025518392 -0.0093712705416)
(0.822033561117 -0.00226507403722 -0.0104459832825)
(0.822369125673 -0.00186074758802 -0.0109284471287)
(0.811494703279 0.00429749014664 -0.000798974698631)
(0.814442306119 -0.00168170645799 -0.000554282470977)
(0.813266805689 -0.00264503328625 -0.000296228367662)
(0.811343690996 0.00397338556347 -0.00156672243225)
(0.814952083298 -0.00169503969064 -0.000881600816458)
(0.813682757075 -0.00241488317662 -1.49295264807e-05)
(0.810734400743 0.00340852082123 -0.0025675761203)
(0.81681247338 -0.00178030831665 -0.00200289006964)
(0.808594363815 0.00315167134354 -0.00292335096942)
(0.819140382548 -0.00150242347628 -0.00319328210546)
(-0.20549537983 0.0915122266292 0.00152595527689)
(0.161525279338 0.0523574234087 0.169160699494)
(-0.0108826216022 -0.0942441838882 -0.479287878784)
(0.809646515597 0.00179210587148 -0.00459474877196)
(0.808723589451 0.00188029305004 -0.00439519200022)
(0.795153300993 0.0075863342215 -0.00152128124115)
(0.794589440194 0.00541436844633 -0.00491398110592)
(0.806524472528 0.00222243693005 -0.00494410333577)
(0.819204265117 -0.00171753905677 -0.000364767918658)
(0.819054439109 -0.000994811072668 -0.00246297375877)
(0.818956048894 -0.000774612280159 0.000834637548188)
(0.821796719223 -0.00185397866309 -0.00823264553051)
(0.781791738568 -0.000238249786425 0.000880399314311)
(0.821926487137 -0.00116155785304 -0.00830139182444)
(0.820664979478 0.000379761906303 -0.00100549224593)
(0.115329735623 0.105882273851 -0.0153249906679)
(-0.174617289861 0.0609806724409 -0.00802453725351)
(-0.12485154232 0.0502059344247 0.133109481558)
(-0.125644695867 0.0272323013749 0.139603376538)
(-0.0242432080616 0.0691121384464 -0.0153396350266)
(0.0449988925381 0.0425660129999 0.178800202331)
(0.807081443659 0.000355782411611 -0.00735224168294)
(0.807189948806 -0.00129773567991 -0.0112020364328)
(0.790757292698 0.00281635785247 -0.00671755728538)
(0.79043713765 0.00348214944433 -0.00502861522244)
(0.806233922527 -0.000660510571193 -0.00780584083607)
(0.790111736266 0.00331467915308 -0.00703767643906)
(0.808138095918 -0.00017303949017 -0.0105599692589)
(0.80946338922 -0.00221346825693 -0.011461174343)
(0.812762190903 -0.00155779876758 -0.0134425929012)
(0.790577365527 0.00228617914661 -0.00775393678273)
(0.789422785531 0.00156141264817 -0.0100254876642)
(0.812201228819 -0.00271073538077 -0.014511673811)
(0.789895670707 0.00206561046821 -0.00842448667374)
(0.810142688823 -0.0010171940216 -0.0108067572003)
(0.817899294324 -0.00312866567978 -0.014328843853)
(0.814569632129 -0.00197598758958 -0.0123359268202)
(0.788644397296 0.00228086387403 -0.00928375793391)
(0.789031219634 0.00151682079895 -0.0104820000352)
(0.814318115868 -0.00312003272474 -0.0134205563584)
(0.788081353095 0.00116729792234 -0.010335348038)
(0.817803413489 -0.00225550126848 -0.0130136990858)
(0.821601209183 -0.0018609191484 -0.00955821071181)
(0.787721706058 0.00221177486975 -0.00730259655586)
(0.786664211974 0.00156064759297 -0.00788391046098)
(0.819177285239 -0.00280339845695 -0.0122663221711)
(0.788320766487 0.00236748434587 -0.00864726912565)
(0.787554011663 0.00141901453649 -0.0095316747967)
(0.818885544333 -0.0021433549981 -0.0111155498115)
(0.823217506946 -0.00105776591848 -0.011674144858)
(0.786572052392 0.000793592148681 -0.00917931324119)
(0.786656797508 -0.00109037945455 -0.0101182134342)
(0.819505646068 -0.0026826134828 -0.0135224947274)
(0.787654609376 -0.00154923635184 -0.012643171319)
(0.820124780195 -0.00203826682823 -0.0151642732869)
(0.787499375468 0.000255106535824 -0.0112013580126)
(0.331894989206 0.178679739297 -0.00669387456208)
(0.162955098761 0.106371147899 0.140735401736)
(0.364795573877 0.192860125646 -0.00290085307441)
(0.293631817154 0.178353088954 -0.00600572473316)
(0.169448545363 0.146134866283 0.0954804762194)
(0.095324597218 0.14689881333 0.135273022286)
(-0.226207384015 0.0620554435126 0.00737958596601)
(-0.113408913653 0.0820947840617 0.0700088734492)
(-0.129273525222 -0.0351277130348 0.105525996239)
(-0.219723572684 0.0464425700102 0.0113957422858)
(0.0180025687639 0.0943278035872 -0.0223902151473)
(-0.222189003609 0.0834582961018 0.00621117178712)
(0.00597506439434 -0.0330992283792 0.0132925279147)
(0.806859983105 0.00209933910654 -0.00395350849575)
(0.807054311111 0.00287852675385 -0.00212854772714)
(0.795088092757 0.00699563181306 -0.00264779352956)
(0.794372425575 0.00700118979909 -0.00219309457743)
(0.8073629077 0.00219080341984 -0.00321061106209)
(0.806733051178 0.00267132131404 -0.0031373395784)
(0.794114352751 0.00648914552956 -0.00308797467299)
(0.807526993037 0.00176896787772 -0.00539801518638)
(0.808269095847 0.00110974814846 -0.0062408551344)
(0.794890299873 0.00607293835287 -0.00334049790502)
(0.793709257427 0.00480600023015 -0.00519232030796)
(0.808176296517 0.00181468224603 -0.00486007285381)
(0.807627132775 0.00111781710097 -0.00696714862096)
(0.794022024776 0.00550438925212 -0.00384198245806)
(0.792612724407 0.00483696910193 -0.00357031021304)
(0.791979681367 0.00434296777009 -0.00474688935961)
(0.806472730938 0.00154562980641 -0.00640367039926)
(0.807069432168 0.0020924141191 -0.00496551640386)
(0.792922740308 0.0042996210342 -0.00489773315526)
(0.807215602515 0.00142079443258 -0.00651028541564)
(0.793213086059 0.00519078840411 -0.00350590113363)
(0.821539360262 -0.0016544869826 -0.00735176406209)
(0.786852780346 0.00156833246517 -0.00595649671385)
(0.785830901681 0.00159354174765 -0.00635437929658)
(0.821923894649 -0.00153732613385 -0.00336726068944)
(0.785056982337 0.000908422354475 -0.00273757523771)
(0.821749836292 -0.00132459487221 -0.0027610001878)
(0.784231565319 0.00151291958396 -0.0030190737617)
(0.820483747742 -0.00139769770729 -0.0020017036515)
(0.81954134449 -0.00129883273254 0.00197093284875)
(0.783672483967 0.000272988581954 -0.00158805886129)
(0.781219011041 0.00114319262357 0.00142558804557)
(0.820391482128 -0.00124381771613 -0.00156965437315)
(0.81939833714 -0.0014075464126 0.00194091955109)
(0.782769792442 0.00130694135931 -0.00144479533599)
(0.822254983508 9.43337564641e-06 -0.0024345176877)
(0.822636401871 -0.000215110686362 -0.00882987020912)
(0.785685347613 0.00146589432509 -0.00747172166703)
(0.785919103624 7.47848176728e-05 -0.00774704947396)
(0.783373930316 0.000720231461448 -0.00333740783827)
(0.822001415276 -0.000983490871237 -0.00280586270089)
(0.783861321349 0.0018288889458 -0.00384593368407)
(0.781805079189 0.00103722038325 -0.00162004710585)
(0.780114743968 0.0010645832882 0.00133334531846)
(0.819373254786 0.000589651292309 0.0030426790221)
(0.820399001861 -0.00070485952824 -0.00150232707598)
(0.780636173388 0.0015630946474 0.00043894731633)
(0.819248063977 -0.000562816357503 0.00240469404974)
(0.782260534383 0.00183715007375 -0.00222423519721)
(0.81484900716 -0.00249746490147 -0.000251166546979)
(0.817434331107 -0.00182529934503 0.000376006097113)
(-0.171070952137 0.0652536058368 0.00404810345679)
(0.0274960064922 -0.0334928708762 -0.568670923735)
(0.81035733654 0.000895786081458 -0.00557632883702)
(0.791539148391 0.00334361958915 -0.00544456011562)
(0.817095196369 -0.000881381343626 0.00158146882772)
(0.813878010744 -0.00128447108866 0.00237308096187)
(0.780811998221 -0.000605683008811 0.00249388046495)
(0.778888226784 0.000730273149509 0.00292261249651)
(0.777140527673 -0.00107916894655 0.0037038324594)
(0.812551738504 -0.00185473504549 0.000219145249836)
(0.810649433025 -0.00228029699929 -0.000653416867626)
(0.776382548527 -0.00191850839532 0.0023823285003)
(0.773146312356 -0.00316193912577 -0.00137335570101)
(0.252589872026 0.150944374468 -0.0110017901657)
(-0.148061534296 0.0228275970245 0.00940629017455)
(-0.0442707002852 0.0103598099331 0.0123597453234)
(0.0601893735948 -0.0658612306268 -0.044411862429)
(0.0563850567324 0.104135660826 -0.0776930252372)
(0.0461087008003 0.0961194897921 -0.058736839563)
(0.00504006186786 0.017760441005 0.00805106793671)
(-0.00612352138919 0.0376479089645 0.00100953649212)
(0.809376310115 0.000355963642383 -0.0102755574874)
(0.807592543384 0.000777781241539 -0.00743989543536)
(0.792339055357 0.00343672164068 -0.00547101750188)
(0.791106615451 0.00304308963271 -0.00714807255672)
(0.808353615221 0.000817628363123 -0.00784108164272)
(0.791594860951 0.00269324675474 -0.00721714520048)
(0.808724454352 0.000290473361956 -0.0101738890606)
(0.815441881879 -0.0016539423245 0.00422505818252)
(0.817773002635 -0.0013868622666 0.00257863222034)
(0.780455736894 -0.000693892628355 0.00331892250233)
(0.779997957939 0.000867683931439 0.00252004727412)
(0.81570650069 -0.0015541355739 0.00445685467685)
(0.817497440672 -0.00149633804262 0.00233471216062)
(0.779911233356 0.00062432162081 0.00339053425656)
(0.815158105234 -0.000602530189346 0.00501953095693)
(0.817486032881 0.000727421760311 0.00350216278005)
(0.779339286955 0.00123171713125 0.00171382677284)
(0.778575969022 0.000429805284847 0.00413281340529)
(0.817418467779 -0.000511176080822 0.002863736342)
(0.779185330714 0.0010281854468 0.00268775582565)
(0.814755751887 0.000469569726418 0.00595727628432)
(0.813108203372 -0.000685766618541 0.00402481861234)
(0.810296496694 -0.000150925387059 0.00461036841277)
(0.777998595833 -0.000163666942137 0.00241291750389)
(0.778264349839 -0.000303952854178 0.00416657004567)
(0.810789686494 -0.000989962316844 0.00384342469748)
(0.778964664979 0.00038645961413 0.00284877195058)
(0.812702808187 0.000269987403974 0.00479198660401)
(0.808706067792 -0.00158062824483 0.000606510864542)
(0.809051024981 -0.000664451202445 0.00292900629885)
(0.777050596202 -0.000624616236817 0.00134017952231)
(0.775470746272 -0.00250580063611 0.000688344765523)
(0.809466975142 -0.00147077449817 0.00244464487226)
(0.775989614784 -0.00127776102204 -0.000254510062353)
(0.808524549316 -0.000769287908132 0.00114423552921)
(0.808288900885 -0.00173115032721 -0.000692886614861)
(0.808137567144 -0.000908488378805 -0.00169671269776)
(0.773306971897 -0.00187421389407 -0.00278299395117)
(0.77442002398 -0.00302318126739 0.000293850956769)
(0.80846282258 -0.00184147139727 -0.00268698108524)
(0.774579403526 -0.00160379960642 -0.0015782388138)
(0.80814946487 -0.000917923987874 0.000274298919522)
(0.794706282988 0.0115234358159 0.000588104504668)
(0.799666894602 0.0132816096192 0.00180214277344)
(0.801461349922 0.0179488884643 0.00293350647224)
(0.803430236955 0.00914622450041 0.00184452888965)
(0.375880899357 -0.126527865711 0.00603433456968)
(0.367617215918 -0.122269981041 0.00225884953692)
(0.314062847876 -0.0367713115402 0.00708272300152)
(0.417827856673 -0.0295142924624 0.00689020576483)
(0.404252704796 0.162658948115 0.00322810293106)
(0.340952092683 -0.0379545880808 -0.189949714595)
(0.362557191009 -0.0575766043362 0.570027905289)
(0.263836047981 0.0161246956711 -0.347867598717)
(0.356490286612 -0.0456417554686 0.260231156278)
(0.26105913327 0.0206813735853 -0.396414927802)
(0.473630109431 -0.0408937472578 0.133847106048)
(0.790256268454 0.0012172459782 -0.00250904365415)
(0.791663928497 0.00496568228786 -0.00273846633743)
(0.781435128757 -0.000492435248583 -0.00277272274499)
(0.782910591338 0.00474665796014 -0.0045039554403)
(0.790091397045 0.0076469000772 0.000723022606367)
(0.782202253324 0.00538629870252 -0.00377328991887)
(0.793608531091 0.00842330710425 -0.000963917373402)
(0.796878075689 0.0109099836699 0.000256609201223)
(0.783683785919 0.00571320684852 -0.00398578426337)
(0.786719720178 0.00154738174031 0.000269419192072)
(0.79227008819 0.0158025694417 0.00367121451542)
(0.797295696126 0.0141030062946 0.00210025637027)
(0.797256888549 0.0168415371789 0.00297707495767)
(0.782997808186 0.00671681258821 -0.00371464413384)
(0.780338841455 0.00913510960078 -0.00181101344635)
(0.785041904061 0.00261396562839 0.00104153197087)
(0.783000345537 0.00606413927909 0.00195891847919)
(0.798865033505 0.0211428618668 0.00454827663869)
(0.801456281055 0.0255337968683 0.00644302782074)
(0.780542211571 0.0104361050395 -0.000734669993277)
(0.78477905968 0.0122455809984 0.001621241021)
(0.783019573579 0.00719808787323 0.00307406646756)
(0.785135654832 0.0100943964818 0.00530923603722)
(0.800254402391 0.01536120948 0.00285763172772)
(0.802001988906 0.0119237574218 0.00270922256118)
(0.785785306413 0.00268490312734 0.00318849081069)
(0.783877625317 0.00555609614171 0.00396503281007)
(0.78596589648 0.00737476692135 0.00562477472166)
(0.803256732554 0.0195779281935 0.00374804631016)
(0.802657165905 0.0131578018526 0.0029549749863)
(0.80387269045 0.0139749242408 0.00352730670771)
(0.783944659971 0.00636867098367 0.0043810281937)
(0.785866134204 0.00888718064194 0.00580576047641)
(0.786289476317 0.00789135328305 0.00598684759079)
(0.787753212092 0.00986797944669 0.00632115348779)
(0.7866839992 0.00907212750181 0.00541924963339)
(0.788365346461 0.0103862198278 0.0056707098275)
(0.467889954236 0.0315527031155 -0.00647308734152)
(0.461110388261 -0.0570128111581 -0.00800898339545)
(0.416110674752 -0.0672336441839 -0.00515965293461)
(0.210338008757 -0.0290738977674 0.190743960797)
(0.347724195412 0.0023002031523 0.164321769228)
(0.229754011254 -0.064681776292 0.19677550192)
(0.373092269296 -0.048924181623 0.154428325359)
(0.332944610653 0.0184458411928 0.0847908270586)
(0.19409785255 0.0213339895469 0.0266276846893)
(0.360859232407 -0.0381333453759 0.0916927407335)
(0.232629895149 -0.0329270041204 0.0526753685888)
(0.422664631142 -0.112145739218 -0.000653340527399)
(0.337359080158 -0.115182133373 0.00734566496785)
(0.360426068189 -0.12705449115 0.00334138630867)
(0.323151984551 -0.117770666203 0.00961125815145)
(0.343514693645 -0.119650751533 0.00725289464058)
(0.223132867688 -0.0858409644121 0.0976466795981)
(0.370900097532 -0.074813396154 0.0401859956893)
(0.242335903639 -0.0536807994026 -0.0898671168991)
(0.37024391219 -0.0382792098037 -0.13902381733)
(0.371297541963 -0.118740655271 -0.000868977765312)
(0.378368915574 -0.110303177179 0.0078581304175)
(0.43816038328 -0.104596065107 0.00450022919)
(0.362306398537 -0.0488437869782 0.0216312405769)
(0.295994488876 -0.0355255630114 0.0409138267364)
(0.368026367945 -0.000486900472059 -0.169853044688)
(0.294122055984 0.0274705346862 -0.176436409344)
(0.360101200054 -0.035396931086 0.00735473296648)
(0.368265061419 0.0639539360285 0.00532961758022)
(0.250848349407 -0.0413207293572 -0.218052416572)
(0.372243177464 -0.0299660767791 -0.25651817904)
(0.374063343271 -0.00523338717972 -0.257586274024)
(0.480143279211 -0.0146540206146 0.00306760770308)
(0.435479258698 0.0677352880186 0.00512149933186)
(0.494124591688 0.0781351528056 0.00228407239953)
(0.384474750572 0.00116566319648 -0.265112169292)
(0.35196138979 0.0206405039843 -0.244176923263)
(0.411678481141 0.00924089644447 -0.271104579704)
(0.386939742669 0.0121018414507 -0.241749511571)
(0.794027640323 0.00087986537977 -0.00471439122388)
(0.792840595046 -0.00103784803677 -0.00370976665397)
(0.782389223014 -0.000385455097647 -0.00215943079014)
(0.781475295772 0.00108423736365 -0.00360409567009)
(0.793279790296 0.00182144982404 -0.00466499421028)
(0.782319779373 0.000697357205735 -0.00270795827926)
(0.793873758726 -0.0013543581086 -0.00386620259466)
(0.794850432769 0.00346063944334 -0.00564781183711)
(0.795471057169 0.00740188302876 -0.005172898576)
(0.782038064531 0.00383348189001 -0.00438045888869)
(0.783702162147 0.00325470133561 -0.00414916714377)
(0.794169104092 0.0048445633937 -0.00558809208307)
(0.79581710265 0.00639011844124 -0.00638560731119)
(0.782782328801 0.00293030798583 -0.00373157309926)
(0.792738349941 0.00679267022353 -0.00202767323634)
(0.794688294485 0.00877039611767 -0.00407829213946)
(0.78147720559 0.00455797422629 -0.00424899410708)
(0.78094294999 0.00689252700919 -0.00260594358529)
(0.793702203204 0.00549285132906 -0.0042524297443)
(0.79400563424 0.00996854616119 -0.00146110011792)
(0.780595385252 0.00541542281713 -0.00297924697819)
(0.798517185411 0.0106144090362 -0.00573381121855)
(0.796768110305 0.00971580383225 -0.00448555288376)
(0.785083975459 0.00439957975995 -0.00481921775796)
(0.784348208879 0.00415957978183 -0.00353306874277)
(0.797263093859 0.00863710265907 -0.00603366840011)
(0.79798431669 0.0115064864305 -0.00370186620028)
(0.786082882586 0.0025374086954 -0.00453895776775)
(0.799642549848 0.0119323361656 -0.0035279552504)
(0.800231653547 0.012961701752 0.000770145555323)
(0.78557122361 0.00402156940928 -0.00198497904753)
(0.788603852694 0.000915388026085 -0.00182329179741)
(0.799132711036 0.0125489038734 -0.00129968370913)
(0.8006253902 0.0124322611815 -0.00184703012429)
(0.78768593632 0.00258069371726 -0.003395872056)
(0.796622081936 0.013975734975 -0.000912137072961)
(0.795920005971 0.0110626824236 -0.00361805749208)
(0.781681036972 0.00788370265853 -0.00250081482135)
(0.783868206642 0.00499651672458 -0.00295294499962)
(0.795213695229 0.0123049550862 -0.00167674284267)
(0.797264716365 0.0126659340459 -0.00314153043943)
(0.782237270114 0.00616573763326 -0.00163034490285)
(0.796091972209 0.0156470599254 9.94819544204e-05)
(0.793935496632 0.0156378775719 -0.000142538570068)
(0.780490855056 0.00822732049205 -0.00187117292617)
(0.781321534501 0.00837500128855 -0.000613460723366)
(0.794392227855 0.0137992611833 -0.00072879861376)
(0.795932700475 0.0174197728551 0.000499060286804)
(0.780923428657 0.00729739325714 -0.000647052100963)
(0.798154745833 0.0150390122899 -9.45751651205e-06)
(0.799814640413 0.014566156518 0.00131609833651)
(0.784534345074 0.00487549160704 -0.00180843034716)
(0.783969074847 0.00343099189319 0.000600161856115)
(0.798483252371 0.0139895399153 -0.0012806809195)
(0.799513343518 0.0156102117434 0.00178253073479)
(0.783353253918 0.00585906593965 -0.000831769899169)
(0.797843065135 0.0166532275843 0.00132253431952)
(0.799536966801 0.0185252181718 0.00309517579049)
(0.782035950817 0.00794882777121 -0.000143546970773)
(0.78285905565 0.00490864454104 0.00152733445902)
(0.797788541763 0.0183393088097 0.00117611929145)
(0.799453103309 0.0171371991572 0.00248333153783)
(0.782045276582 0.00702791371045 -8.64971848336e-06)
(0.797263263096 0.0215755025399 0.00341905529361)
(0.794087570319 0.017696860801 0.00107821556608)
(0.781248808853 0.0112662400824 0.000332961828836)
(0.781025682386 0.0096667531151 0.000225600456681)
(0.795009733485 0.0202838435234 0.0033229553434)
(0.79613107414 0.0194949934735 0.00134639254145)
(0.781715900344 0.0109762304862 0.00159126953517)
(0.798366497646 0.0235296956631 0.00382946459155)
(0.799146425307 0.0249770213669 0.0060132531331)
(0.782774036933 0.0120988504847 0.000879692266949)
(0.784946293865 0.0119918352295 0.00285058318996)
(0.796300966419 0.0227587653204 0.00368993087128)
(0.782980435897 0.0116590015984 0.00209386693966)
(0.80100347686 0.0255080200935 0.00562235227198)
(0.799156365901 0.0220421294401 0.00291096782498)
(0.799712714183 0.0201880671426 0.00397992230711)
(0.782237504956 0.00895939303594 0.000248785662574)
(0.783117673713 0.00844527707539 0.00371104830379)
(0.798129448802 0.0202850009214 0.00191394667354)
(0.800523919819 0.0215423041357 0.00477944227973)
(0.782587134416 0.0101625256026 0.00123458491383)
(0.800230325044 0.0235025708578 0.00312726740451)
(0.803226028907 0.0236125687094 0.00606597739614)
(0.785192371487 0.0113962246414 0.00303386713597)
(0.783917302478 0.00929425629725 0.00439657879699)
(0.80149391073 0.0225152757428 0.00482962320645)
(0.783437486378 0.010778164482 0.00173364042455)
(0.8023895529 0.0251840788562 0.00460355848063)
(0.801888664091 0.0132179038837 0.00574392558856)
(0.801238318398 0.0139299796973 0.00373322782639)
(0.785091082596 0.00350170000022 0.00286003335744)
(0.786554036404 0.00300562343827 0.00437739370644)
(0.800799282706 0.0150971596837 0.00398143755566)
(0.802420508154 0.0120709973104 0.00455265354883)
(0.785957980368 0.00380236265345 0.00443254424287)
(0.801836727433 0.0142893976838 0.00598975933197)
(0.800740144167 0.017494271236 0.00519959985555)
(0.784242866848 0.00460019979147 0.0036336298365)
(0.784831349853 0.00550090551888 0.00534314318955)
(0.800898394627 0.0164019128801 0.00474866023702)
(0.801753680111 0.0151794731794 0.00658916078115)
(0.784869966287 0.00446187583709 0.00504755063256)
(0.802848401482 0.0122339898191 0.00646014226352)
(0.803206537007 0.0107049958957 0.00701162499408)
(0.785579171439 0.0064428945634 0.00565466134719)
(0.786424590348 0.00670477637359 0.00551834004836)
(0.802663429571 0.0129763724134 0.00702642041654)
(0.803397672754 0.0101391281115 0.00649639756348)
(0.785696157935 0.00581968572876 0.00524806962912)
(0.802185353991 0.0168472942256 0.0070380457358)
(0.800902688599 0.0186961506877 0.00552618215315)
(0.784155568962 0.00741063733124 0.00456038866694)
(0.785033846863 0.00639303450168 0.00611543464571)
(0.801498611783 0.0196535461308 0.00553224912205)
(0.801868780687 0.0163061864962 0.00692582340713)
(0.785018681817 0.00737009926118 0.00644069429434)
(0.802796492983 0.0175508045539 0.00679502508314)
(0.803680184823 0.0210313747537 0.00643328943966)
(0.78470840073 0.0081551937297 0.00480313999914)
(0.786421852829 0.00902691857743 0.0071947564162)
(0.802209330252 0.0203452873672 0.0054319133506)
(0.785471939212 0.00827912954935 0.00662746402858)
(0.803892064711 0.0178711794751 0.00748325679684)
(0.802827184249 0.0142443940234 0.00730022128851)
(0.803027664445 0.0112311483315 0.00719386756713)
(0.785811126525 0.00684304314074 0.00633762797757)
(0.786555571025 0.00852700227604 0.00577330764551)
(0.802618876193 0.0137098339693 0.00731457763081)
(0.803215632771 0.0117563590436 0.00695121498943)
(0.785908891414 0.00758153075178 0.00639622374457)
(0.803323568131 0.0146255663527 0.00707525109749)
(0.804264062043 0.0123726712908 0.00695557785803)
(0.787148283885 0.00924373879473 0.00696039960945)
(0.78701920892 0.0091430665515 0.0057465546816)
(0.803670637192 0.0121906353185 0.00658950012919)
(0.786347081682 0.00835946210776 0.00659740774037)
(0.804143330961 0.0149107653963 0.00748995317006)
(0.804162808075 0.00755066875941 0.00498766904813)
(0.80354853046 0.00894910974833 0.00623966264006)
(0.786920614744 0.00945205276109 0.00553159001975)
(0.787007999554 0.0100711003778 0.00400918825484)
(0.803712360665 0.00951933588575 0.00626853125241)
(0.803985740779 0.00708539682729 0.00486734510112)
(0.787234043503 0.0105537278604 0.00407497787543)
(0.80454233999 0.0102150994089 0.00613539254898)
(0.787500664341 0.00986700600462 0.00547515615894)
(0.803959769995 0.0100243783956 0.00604738961539)
(0.814235280674 0.00204002544437 -0.00081005128665)
(0.815918617778 -0.000316273851783 -0.000564195102888)
(0.815627862615 -0.0025474301862 -0.000553495115805)
(0.812267804989 -0.00374253176589 -8.92382673876e-05)
(0.808235588025 -0.00418162503953 -0.000151618961926)
(0.815018493085 -0.0309146024681 -0.000145554634037)
(0.814557417268 0.00192071799672 -0.00205482352806)
(0.816139345349 -3.46560651439e-05 -0.00170509412085)
(0.816038131424 -0.00201959907202 -0.000934739212138)
(0.812590050333 -0.00351787892802 0.000619772745591)
(0.808219612901 -0.00421188053624 0.00150785969166)
(0.815361347558 -0.0316526061939 0.00211574441862)
(0.813991531799 0.00580238702865 -0.00044684962778)
(0.812060785142 0.0059651344148 -0.000680970068411)
(0.793375211816 0.00817361086259 0.00217110228663)
(0.791170717118 0.0075543064315 0.00327777513261)
(0.788937745363 0.00536080645884 0.00804275684425)
(0.785438825992 -0.000671694636945 0.0124214952423)
(0.788329078418 -0.00160454721384 0.0122741490787)
(0.761398979922 -0.0224544700836 0.0167880516581)
(0.824565777421 0.00491708880715 0.000264532954053)
(0.822308196226 0.00238361177715 -3.72410947811e-05)
(0.820398736897 -0.00129532361312 -0.00145050564536)
(0.819386010578 -0.0081983986666 -0.00209448909458)
(0.818707223801 -0.0131777088371 0.00011341523035)
(0.812991248891 -0.0166954514638 0.00332147101969)
(0.808281411207 -0.0121352583371 0.00367578158424)
(0.802089525676 -0.0497335315602 0.00586696773154)
(0.818297809583 0.00419561624491 -0.000646126359151)
(0.820517331256 0.00309925424602 -0.00114747198278)
(0.821243903329 0.000862421164545 -0.00173373777148)
(0.820370051137 -0.0040306995621 -0.00165147090937)
(0.818558573227 -0.00655839328959 -0.000351061971718)
(0.815738111292 -0.00918879569683 0.00100117524266)
(0.808940683546 -0.00781432285671 0.00188648587817)
(0.807890080076 -0.0413829438409 0.00284202053198)
(0.813935406276 0.00462254461192 -0.000245224710173)
(0.816727120702 0.00141434379864 -0.000714717068878)
(0.818597822749 -0.0010471324925 -0.00105871581463)
(0.817977584911 -0.00362967247903 -0.00104646590162)
(0.815951256568 -0.00569823396193 -0.000592955295364)
(0.814128684281 -0.00838766776714 8.10830778823e-05)
(0.808747614442 -0.00825324707263 0.00048455581533)
(0.811809240555 -0.0448566677563 0.000835806699096)
(0.814171354163 -0.00388524768502 -0.00038350533303)
(0.813086692549 -0.00531509100678 -0.000262961606564)
(0.808800091803 -0.00547555966258 -0.000234051996945)
(0.814698397557 -0.0358545539634 -0.000162559677082)
(0.636540349718 0.0414212130923 0.00980684518867)
(0.635612911736 0.0401000524629 0.0114448071523)
(0.65108355424 0.0227753340836 0.0158734745387)
(0.652973062285 0.0196253177008 0.0204998025866)
(0.664511695939 0.0157122205901 0.0277652507698)
(0.677801029013 0.0022782797738 0.0293538820552)
(0.731292174909 -0.00118066683381 0.0210820624287)
(0.677485266106 -0.0383960138138 0.0233727763579)
(0.77187239762 0.0130561369805 0.00732069727739)
(0.768806720198 0.00796285012155 0.00659835258922)
(0.778354637565 0.000583235394783 0.00902118102598)
(0.778957485525 -0.00397000547207 0.0125426891029)
(0.785946678681 -0.0136809797032 0.016876053317)
(0.791113378601 -0.0199117098855 0.0156820056536)
(0.796707211951 -0.0169952772602 0.0133667395542)
(0.78789282396 -0.0784093638355 0.0148640414546)
(0.819131552875 0.00423966129982 -0.000139181701392)
(0.819734515194 0.00359157064868 -0.00111296799839)
(0.820405544693 0.00283066208329 -0.00175995576725)
(0.820927447477 -0.000308789825031 -0.00134479012129)
(0.820476105642 -0.00499810808711 0.00103329309427)
(0.817327309464 -0.01045313887 0.00189225329193)
(0.811148368998 -0.00976109024744 0.00407533663068)
(0.81227058422 -0.0520899074745 0.0058951178973)
(0.814067462557 0.00495993958755 -0.000700201789628)
(0.816527586051 0.00144289668876 -0.00151914825031)
(0.818229287018 -0.00129567950841 -0.00175947944026)
(0.818482166195 -0.00359856632309 -0.0012924783842)
(0.816821228288 -0.00574057405467 0.000665537778815)
(0.815129502995 -0.00803536260323 0.00141247309377)
(0.809530574766 -0.00841319702722 0.00279781758796)
(0.813549997168 -0.048077786621 0.00389826031606)
(0.814446129865 -0.00366809425355 0.000167519632704)
(0.813334161326 -0.00554961324973 0.00070721318691)
(0.808831121112 -0.00609332447867 0.00170568419461)
(0.815758532716 -0.0390009864153 0.00248961324183)
(0.632445733977 -0.0153937649027 0.018594024031)
(0.626946806717 -0.0163138937055 0.0162869111091)
(0.638257795428 -0.0218605115868 0.0162971990576)
(0.643657530298 -0.023703734723 0.0215457411301)
(0.657991738671 -0.0271117085488 0.0264514016482)
(0.670570176375 -0.0318354789877 0.0155712538272)
(0.726819309277 -0.0206458868733 0.00731510716956)
(0.678521216152 -0.0644103632503 -0.0047519525257)
(0.732628399602 0.00437935344727 0.0223936386159)
(0.731355580412 -0.00159661022702 0.0194855142033)
(0.784793437535 -0.000594630171152 0.00284366392184)
(0.787189787693 -0.00477901138748 0.00564340495526)
(0.791660389718 -0.0142638230511 0.00961822213892)
(0.793098634296 -0.0191705027018 0.00696981572198)
(0.797681396402 -0.0165890066546 0.00411549991255)
(0.79411576073 -0.0821173109912 8.51959960089e-05)
(0.818783048314 0.00301319845042 -0.000222345642084)
(0.818906932514 0.00227140292091 -0.003850878207)
(0.820731159983 0.000334685406097 -0.00538454686571)
(0.823326673335 -0.00416582915165 -0.00279273821086)
(0.822354298777 -0.00970612645063 0.000942847302936)
(0.818685618291 -0.0142780729033 -0.0001491186352)
(0.813010429163 -0.0123338810898 -0.00249641829576)
(0.8201618039 -0.0602429302388 -0.00325882724085)
(0.809350373948 0.00795934049349 1.90984615462e-05)
(0.813355113224 0.00392891951864 -0.00151550961523)
(0.81600922749 0.000387265966672 -0.00360549475497)
(0.819106143677 -0.000841759352562 -0.0045026252014)
(0.820262702984 -0.00374742936028 -0.00245577371773)
(0.818366310308 -0.0064921271702 0.000280846583618)
(0.816472541767 -0.00922662610657 0.000314662618003)
(0.810728193071 -0.00983273767271 -0.000785411264542)