/*--------------------------------*- C++ -*----------------------------------*\
| =========                 |                                                 |
| \\      /  F ield         | OpenFOAM: The Open Source CFD Toolbox           |
|  \\    /   O peration     | Version:  v1906                                 |
|   \\  /    A nd           | Web:      www.OpenFOAM.com                      |
|    \\/     M anipulation  |                                                 |
\*---------------------------------------------------------------------------*/
FoamFile
{
    version     2.0;
    format      ascii;
    class       volVectorField;
    location    "2.8";
    object      U;
}
// * * * * * * * * * * * * * * * * * * * * * * * * * * * * * * * * * * * * * //

dimensions      [0 1 -1 0 0 0 0];


internalField   nonuniform List<vector> 
28582
(
(0.805577815017 -0.00251658493793 0.000118468420347)
(0.803882725854 -0.00342867199893 3.46896848705e-05)
(0.805481399725 -0.00230900833806 0.000502438503637)
(0.803686377071 -0.00324247560135 0.000183154990657)
(0.805178719698 -0.0026765011849 0.000329208228462)
(0.803066654489 -0.00353939711855 0.000215624656282)
(0.806282958345 -0.00213880601543 -0.000312403826617)
(0.803742841456 -0.00323250663213 -0.000713888372336)
(0.52509953775 0.0938614309748 0.00424319167482)
(0.522309465967 0.066773089692 0.0043357271635)
(-0.0250691130212 -0.0192964254273 0.0108738366254)
(0.805211406312 -0.00283018010837 -7.92596189133e-05)
(0.798093316017 0.00137379926331 -0.000238322948766)
(0.795758612839 0.000225469426244 0.000987860603113)
(0.802238709643 -0.00359799361507 -0.000613253722633)
(0.801935640103 -0.00325875749614 0.00156507883166)
(0.795477651936 6.92447099715e-06 0.00111999567623)
(0.80107643272 -0.00421297599062 0.000937025044789)
(0.800790959171 -0.0032072002779 0.00183649121495)
(0.808913019182 -0.00157736883919 2.26755917466e-06)
(0.802476237694 -0.00346630462767 -0.000130346687767)
(0.801775251138 -0.0033983437359 -0.000338451378556)
(0.808760174253 -0.00181574328989 0.000724665998888)
(0.802069733603 -0.00336778750288 -0.000422308663125)
(0.801392660182 -0.00341155609284 -0.00107022524892)
(0.809168992278 -0.00191850548292 0.00141493124388)
(0.800989122519 -0.00361935122915 -0.000665736122539)
(0.810305849651 -0.000386196114193 0.000605974953648)
(0.800857744017 -0.00382154010392 -0.00196884770077)
(0.543302344708 0.066365091039 0.00356428811196)
(0.0251847215975 -0.0297331235907 0.0291851857831)
(0.00361791263799 0.00551943512312 -0.0491715094596)
(0.80973959369 -0.00249829759793 0.000524679566999)
(0.807777538214 -0.00209851248113 0.00309813217733)
(0.801733493132 0.00202973495819 0.000867582886507)
(0.798935581485 0.00150692294694 0.00125085855831)
(0.806853630946 -0.00164716107447 0.00263377744395)
(0.799311515086 -0.00409796877349 -0.00215039118332)
(0.800585069098 -0.00353935471528 3.58687220689e-05)
(0.799235962199 -0.00373920277431 -0.000545336199371)
(0.800241260639 -0.00439609657544 0.000226326159154)
(0.792939286676 -0.00043602480666 9.00229432759e-05)
(0.79993782685 -0.00349130859049 0.000930615075066)
(0.798174787556 -0.00274119642964 -0.000812835822762)
(0.504306397654 0.0856706249421 0.00420980800243)
(0.544615524469 0.00843937103608 0.00379100032474)
(0.106988534333 0.0479043727702 0.0274745937093)
(0.0755197794198 0.0364042111311 0.0492940015818)
(0.505986279961 0.0736115283643 0.00402552070181)
(0.0710701716922 0.0229115583026 0.0839963309975)
(0.806180305412 -0.00212315688419 0.000149371522165)
(0.805846309996 -0.00298078602971 0.000170182202068)
(0.797352297669 0.000821094958204 0.000354148115108)
(0.798021739802 9.19800356153e-06 -0.000167047648678)
(0.805932402401 -0.00269167004344 7.91737092087e-06)
(0.797026894168 -0.000212340429858 -0.000297915581226)
(0.806135636594 -0.00242576992648 0.000402102397218)
(0.805447487136 -0.00323293849941 6.86006871712e-05)
(0.804950280386 -0.00295076659412 0.000807335512523)
(0.796323049006 0.000435789086885 0.000773509785846)
(0.795914119075 -0.000308633647623 0.000657618988822)
(0.8049756653 -0.00330255464925 0.000732814413386)
(0.796487907003 -0.000191297031364 0.000123303972721)
(0.805612899056 -0.00281292311307 0.000610962661834)
(0.803126516644 -0.00377144605933 0.000834652251282)
(0.804151128354 -0.00325622060613 0.000645635012951)
(0.795256236392 -0.000158379471147 0.00141031880421)
(0.795609247457 -0.000520259245877 0.000906127847758)
(0.803995184964 -0.00352427989805 0.000695276467169)
(0.795430443083 -0.000717876116844 0.0010819949088)
(0.803229198694 -0.00345358893618 0.00106841342425)
(0.801266129232 -0.00368225746161 0.00060692263509)
(0.794823235479 -0.000180870671153 0.00127656444335)
(0.794893007574 -0.00127584084022 0.00129187882226)
(0.802082694858 -0.00395534267314 0.000591082572509)
(0.795132934695 -0.000183154610266 0.00134968528114)
(0.795226878245 -0.0010343770495 0.00111043289797)
(0.802162351242 -0.00358567373095 0.000548504524728)
(0.800488105392 -0.00224631247304 0.00249109162559)
(0.794381051443 -0.00137609102734 0.00112373309751)
(0.794486708514 -0.00148917627294 0.00180774284997)
(0.801779797177 -0.0028343811765 0.00170339178934)
(0.794697716107 -0.00132183444355 0.00214603386147)
(0.801483923109 -0.00198200275021 0.00281000443095)
(0.794709447043 -0.00114980611932 0.00120346058743)
(0.552441864265 0.11877141487 0.00460378399181)
(0.190312000967 0.0320789620378 0.0840927798823)
(0.528757573815 0.11694827603 0.00450488667358)
(0.541434769706 0.142622427926 0.00624210878399)
(0.106898545347 0.0585399284728 -0.0345059865466)
(0.103343443313 -0.0142546081664 0.0275357100348)
(0.548656522089 0.0238615719021 0.00208541271345)
(0.119676946238 0.0815677372484 0.0765178943475)
(0.055452189714 0.0537749851318 0.032606700733)
(0.531172777236 0.0379490647857 -0.00168252939849)
(0.186205144798 0.0711335609358 0.142241477678)
(0.544956501449 0.0702939445916 0.00176404427252)
(0.0600663188084 0.0514965096277 0.0470999717538)
(0.808395108745 -0.00169753021699 0.00227944620082)
(0.810236769391 0.000757964433397 0.00155552611557)
(0.80170221506 0.00164409021824 0.00161987378712)
(0.801751554086 0.000892642955693 0.00280765539523)
(0.809994111611 -0.000590300312054 0.0024768442303)
(0.809034151433 -0.000373426106382 0.00329541230719)
(0.800743469765 5.05594513125e-05 0.00141383607641)
(0.808166362144 -0.00302061220283 0.00110623079008)
(0.808749197652 -0.00264031694626 0.0019770196836)
(0.80066346873 0.00125190134137 0.00211793406539)
(0.799862280761 -0.000613161690798 0.000433049868276)
(0.809336855195 -0.0019128257207 0.00277935169745)
(0.808247971467 -0.00349432556671 0.00145132161575)
(0.800230304199 -0.000719348016044 3.03328521882e-05)
(0.800600519452 0.000855364667034 0.00105042717859)
(0.798926283503 0.000469459595982 0.000645426979096)
(0.806731663952 -0.00217821127366 0.00241017745516)
(0.807349942057 -0.00234452354675 0.00207821401502)
(0.799586410228 0.000692718678122 0.000512924772019)
(0.807476643404 -0.00288047646552 0.00219327041226)
(0.799967159975 0.000996158772412 0.000275399656308)
(0.800438677359 -0.00389263471849 0.000186514788631)
(0.794547287529 -0.000340554299626 0.00111237686952)
(0.794655348083 -0.00148518642039 0.00104953007511)
(0.79936362064 -0.00466210682035 -0.000212069210635)
(0.794141352283 -0.000335092718592 0.00110476830558)
(0.799516934002 -0.00400931548513 6.41227722683e-05)
(0.794208261869 -0.00164019912471 0.000519097763083)
(0.798595437202 -0.00491540065923 -0.00109160552273)
(0.797945045912 -0.00442322369977 -0.00130178906882)
(0.793617339373 -0.000377674401698 0.000667514456632)
(0.793196262172 -0.00178602313539 -0.000364817035272)
(0.798753426108 -0.00425132266097 -0.000779699263357)
(0.797748151147 -0.00505368667944 -0.00156467136233)
(0.793729262427 -0.001742164497 -3.49132394915e-05)
(0.798887699386 -0.00274867841938 0.000575169644391)
(0.799651317599 -0.00247978038603 0.00129185363402)
(0.794136543662 -0.00152060921737 0.000699762631957)
(0.794198094771 -0.00164767505455 0.000995352541404)
(0.793815459235 -0.00175163015809 0.000259867490299)
(0.799055633601 -0.00366263990137 4.22944299631e-05)
(0.793724026902 -0.00150207891739 -0.000106974864794)
(0.793367465065 -0.00172704061133 -0.000607262915746)
(0.79300459265 -0.00176611284372 -0.00209242258448)
(0.797652396164 -0.0028259255828 -0.00221398374279)
(0.798318983256 -0.0039603425736 -0.00121380752813)
(0.792969641078 -0.00178724858662 -0.00148471568002)
(0.797780359716 -0.00415870945742 -0.00197185181463)
(0.793191100475 -0.00176586599896 -0.000858401232358)
(0.800547814463 -0.00361752414272 -0.00212953791989)
(0.798645522548 -0.00425825123599 -0.00375217795807)
(0.527364462508 0.0730820364077 0.000196216447158)
(0.0800726446414 -0.00791938553657 -0.0841263543458)
(0.807024983738 -0.00338778444895 0.00293177259469)
(0.798317966343 0.000317705398512 0.00028733905857)
(0.798818251384 -0.00373246583556 -0.00226582942454)
(0.798363791171 -0.00340921049659 -0.00348394399905)
(0.792303798614 -0.00044745540324 -0.000219008125109)
(0.792649306353 -0.00143112456308 -0.0028110810091)
(0.789483779298 -0.000609614827368 -0.00429061059191)
(0.799275607834 -0.00301487190622 -0.00465238291482)
(0.800990654064 -0.00275391299497 -0.00748645082929)
(0.788026888771 -0.000241545068091 -0.00437397616767)
(0.785602867619 0.000250966188833 -0.00803057471814)
(0.533835153762 0.132034562463 0.0047158451746)
(0.48598123654 0.0370623636981 -0.00293879090795)
(0.433649653524 0.0357851845182 -0.00291013998597)
(0.0865025138753 -0.0258562637531 0.0840614222243)
(0.246436641237 0.00226410432098 0.151006200863)
(0.242094857038 -0.0270735014682 0.15868639371)
(0.335865826744 0.0391445717283 -0.00604297384068)
(0.270944271803 0.0469489174226 -0.0159816267688)
(0.80682958011 -0.00429047355438 0.00260366177541)
(0.806669084484 -0.00284678330583 0.00198339836853)
(0.798126985788 4.61642774037e-05 0.00117034060903)
(0.797715606132 0.00053462104076 0.000861879304736)
(0.807200168982 -0.00391065356065 0.00248081398658)
(0.797106470897 0.000133195215906 0.00109083942206)
(0.806527888224 -0.00309974100058 0.00232830949948)
(0.796983433612 -0.00504782602794 -0.003682295192)
(0.797491906597 -0.00475392484313 -0.00226728371417)
(0.791194081189 -0.000259745167843 -0.000752785225662)
(0.792345890272 -0.00176902954221 -0.00112960511761)
(0.796800175083 -0.00476785422683 -0.00284238095811)
(0.797433581999 -0.00508120607968 -0.00287914184904)
(0.791509288059 -0.00156148896706 -0.00252694596485)
(0.797168340747 -0.0037017754028 -0.00401932500356)
(0.797764399289 -0.00267837068534 -0.00341515909619)
(0.79232482125 -0.0015639442304 -0.00220168773636)
(0.791725658584 -0.00124362080647 -0.00334249380191)
(0.7975246635 -0.00408318450808 -0.00343401425966)
(0.79160715622 -0.00138416568926 -0.00325189966516)
(0.797492088981 -0.00237461183835 -0.00399469360664)
(0.797194324766 -0.00362141085382 -0.00503696043015)
(0.797162892756 -0.00202441184921 -0.00555975804599)
(0.788932369756 -0.000670676097802 -0.00403407867709)
(0.790819262659 -0.00133445689861 -0.00390421356441)
(0.796840922405 -0.00319374809285 -0.00565563486245)
(0.790409198605 -0.00128651215761 -0.00338155679166)
(0.797568447668 -0.00237192443765 -0.00501617029869)
(0.797355355335 -0.00272412964105 -0.00853967157597)
(0.79750951278 -0.00192827037957 -0.00622412911878)
(0.787326307977 2.85056628824e-05 -0.00447457347978)
(0.786296228548 0.000286069675738 -0.00483611774231)
(0.797155725103 -0.00272662567494 -0.00680932557588)
(0.786263080288 -5.42761602333e-05 -0.00563244895454)
(0.797436835253 -0.00190322553914 -0.00750359942509)
(0.799018030689 -0.00257211223184 -0.00955856518266)
(0.800033109683 -0.00246854101037 -0.0125508463851)
(0.78550261268 -0.000255529282284 -0.00853440617469)
(0.784988147253 6.95870227397e-05 -0.00602657406913)
(0.80045229493 -0.00291462220967 -0.0129183127375)
(0.785133529633 -0.000144776775665 -0.00664607592106)
(0.798753681802 -0.00211348021986 -0.00868908234791)
(0.791444586978 0.00952206737705 -0.000160565328709)
(0.797065723063 0.0102291785178 -0.000672720617972)
(0.801479863118 0.0152191242184 -0.0020737687911)
(0.803912128136 0.00915914840913 -0.00161655223604)
(0.781662941041 -0.0800464984521 0.00227289965755)
(0.517169866603 -0.11212249087 -0.00614981456416)
(0.784720450923 -0.0830612670197 0.00208951747074)
(0.555858710609 -0.10392898061 -0.00191313409425)
(0.572870329904 -0.0656393570266 -0.000176322601622)
(-0.0119629395394 -0.0211920504234 0.0350967802041)
(0.0686238138253 0.00236592351248 0.154348131016)
(-0.012823891013 0.0252085155591 -0.0440042576106)
(0.075828940395 0.0487349100175 0.0497634981288)
(0.0379362074709 0.0460952345415 -0.078255336321)
(0.141954426794 0.0808945443221 0.132003398825)
(0.788345952099 0.00166794213602 0.00023741419049)
(0.789786775076 0.00484571293661 0.000479606622373)
(0.794327670725 0.000590667438993 0.00017701168035)
(0.795174046728 0.00207592629936 0.000170837569081)
(0.786993952676 0.00676179003852 0.00177352549553)
(0.794932511799 0.00237870739765 0.000220496126625)
(0.791746081434 0.0069500472435 0.000786899482642)
(0.794526227364 0.00799858895767 0.000777818459192)
(0.796004708773 0.00238673498018 0.000409270462042)
(0.7978870122 0.00306385496673 0.000980204699626)
(0.790468242676 0.0148299785111 0.000759040641482)
(0.794381477293 0.0108871297171 0.000300654702891)
(0.795168383212 0.0143697983271 -6.09985763142e-05)
(0.795688522408 0.00355002567715 0.000314263804571)
(0.793063208173 0.0062965638985 -0.00343231872858)
(0.79798958024 0.00327449819615 0.000265779373527)
(0.796431755204 0.00586783928366 -0.00290163416865)
(0.799035386435 0.0180798433333 0.000301245554754)
(0.804799561437 0.0220937530731 0.00179622396141)
(0.793880279938 0.00863587929403 -0.00500182974697)
(0.797632070077 0.0123669747539 -0.00782338711122)
(0.797297823294 0.00617135085683 -0.00451122604694)
(0.799159582824 0.00821018751221 -0.00451699621014)
(0.798776416753 0.0127828028222 -0.00140377748836)
(0.800361101551 0.0103970807253 -0.000692691771145)
(0.798699811357 0.00409221144695 0.000639574791966)
(0.797067347035 0.00561533603743 -0.00205147488984)
(0.798269198431 0.00446833387256 -0.000908828276598)
(0.806154890844 0.0168902069325 -0.00145667020761)
(0.803092151404 0.0119316297507 -0.00115534977653)
(0.806314523296 0.0128688215775 -0.000887560756642)
(0.798587140113 0.00735100091429 -0.00371192166489)
(0.79977830884 0.00780397522439 -0.00355049983262)
(0.799479130088 0.00385417379074 -0.00248901480672)
(0.799488781117 0.00474006785357 -0.00151129499399)
(0.799845803014 0.00514810465393 -0.00231183439733)
(0.799714479077 0.00405899496907 -0.00136338491922)
(0.813574891204 0.0300912947617 0.0029207532667)
(0.80139688478 -0.0396498095048 0.00311024993406)
(0.787582790161 -0.0398719454679 0.00300699059204)
(0.114428299739 -0.00148174274163 0.159285636985)
(0.202188073743 -0.0161545685064 0.396398803781)
(0.111956043236 0.0395847181637 0.134800874161)
(0.192285930974 0.0158548164701 0.361810555742)
(0.145773478 -0.0185796783447 0.532241515359)
(0.122937390577 -0.0180809697318 0.410814475924)
(0.132914093666 0.0112169035511 0.463611997841)
(0.105452213796 0.0197251239424 0.338661852806)
(0.798188663902 -0.0830046958443 0.00289635524484)
(0.801939297611 -0.0974309295275 0.00247020144063)
(0.712921028703 -0.094033446226 -0.00106237503135)
(0.783966229204 -0.098948765268 0.00190686522576)
(0.713476518281 -0.113483210879 0.000189931921267)
(0.117947120593 0.0180476684734 0.107044066329)
(0.196561741587 0.0151670152063 0.300227119552)
(0.157662939955 0.0530694791847 0.0754938032381)
(0.214606434985 0.0557291123513 0.240490543925)
(0.313390430814 -0.101759494784 -0.00841116202762)
(0.543223477883 -0.120339390806 -0.0050267345203)
(0.3756453913 -0.0896998208214 -0.00288524042723)
(0.124051166377 0.0116148651345 0.360870577096)
(0.0952173636034 0.0303744912303 0.213879523264)
(0.168155252106 0.0689464017449 0.264245581328)
(0.104945874164 0.0783417536427 0.16031475592)
(0.717672112781 -0.103091563627 1.78961713156e-05)
(0.704916524539 -0.0678028636088 0.000712265713406)
(0.190050199988 0.0490702781582 0.0267051513249)
(0.275294823349 0.0644217351766 0.178507777063)
(0.346935624821 0.0903172254969 0.133315189551)
(0.414783716729 -0.0707321476123 -0.00173159292542)
(0.558371904283 -0.0834421094537 -0.00195983648545)
(0.454647372853 -0.0382209639236 -0.000769112950085)
(0.22358143603 0.0751679878992 0.213148224023)
(0.183584650642 0.0663519387449 0.131046871962)
(0.340452894116 0.0935343324073 0.170712621889)
(0.314034410623 0.0862765024882 0.124090047238)
(0.789418309077 0.00148762436978 4.91774661457e-05)
(0.787275107346 0.000272469070237 0.00107313087645)
(0.795792909663 1.25177252406e-05 0.000727693675932)
(0.79537008471 0.000765823411542 -0.000155719418739)
(0.788086018525 0.0023928346459 0.000366702425379)
(0.795679338723 0.000212945613176 -0.00069329144141)
(0.789182461801 8.72261135092e-05 0.00136009427138)
(0.790075953104 0.00360598758278 0.000554740131556)
(0.789411843731 0.00596111563749 0.000665496925499)
(0.795624488612 0.00150026802992 0.000235809762078)
(0.796203462692 0.00218185871192 0.000742283431386)
(0.788743380513 0.0041706418093 0.000802717427691)
(0.790759023129 0.00509268490679 0.00115699956639)
(0.795996754416 0.00168590013152 -0.000278926430924)
(0.785650275082 0.00645416371034 0.000319601880601)
(0.78858534425 0.00694612294816 0.000962972347018)
(0.794228226045 0.00177111770135 0.000648284389923)
(0.794021241408 0.00360094874413 4.03734932695e-05)
(0.787185739998 0.00518428224566 0.00136936426695)
(0.787278536909 0.00881008886292 0.000448672061526)
(0.792600988301 0.0024764936147 -0.000396524308231)
(0.792811495512 0.0069176923825 0.000770857519035)
(0.79057831806 0.00710164721289 0.000758887314683)
(0.796886838469 0.00140324316763 0.000997754811469)
(0.797264676542 0.00261267938933 0.000590541350959)
(0.791757806619 0.00623606675145 0.00117492833191)
(0.791918756404 0.00822455146938 0.000845300555686)
(0.797372334526 0.00164699975157 0.000269290067321)
(0.793867237866 0.00781822533361 0.00117694284859)
(0.794111917855 0.00905013605234 0.00124844512248)
(0.797799351349 0.00260716405556 0.000936816498247)
(0.798315250445 0.00299871499608 0.0015583115979)
(0.793216894445 0.00859796766474 0.001373266011)
(0.79489206618 0.00817034473242 0.00201156429199)
(0.797925393811 0.0024874469255 0.000666916290673)
(0.790549537882 0.0109906421072 -0.000914820198552)
(0.790047763149 0.00881466190563 0.000850423734176)
(0.795009667151 0.00370258968985 -0.000120107842831)
(0.796249600331 0.00369868361013 0.000512432353558)
(0.78914323352 0.00995029821373 -0.000219322620572)
(0.79145602801 0.00959017907188 0.000858491923758)
(0.795335793659 0.00397807176336 -0.0010493610863)
(0.791440893884 0.0125478826678 -0.00202779733731)
(0.789589455159 0.0146813026511 -0.00366703984896)
(0.794308632093 0.00465165910544 -0.000971590606492)
(0.795511337482 0.00648300957833 -0.003134800943)
(0.789120952273 0.0118981372383 -0.000579768516769)
(0.792310376907 0.0154044100609 -0.00394409983557)
(0.795216597863 0.00469633148688 -0.00216445345778)
(0.792258153422 0.0114551080759 -0.000734636320242)
(0.794337479049 0.0102681588301 0.000737750074531)
(0.797277275324 0.00301722226363 0.000926074644966)
(0.797957890346 0.00449197125122 -0.000125077317065)
(0.792838584652 0.0100855355739 0.00121655590245)
(0.793986914679 0.0118826000782 -0.000339185884416)
(0.796185460566 0.00430039644117 -0.000611300033691)
(0.793434262982 0.013599988588 -0.0017974998343)
(0.795785679534 0.0152268120543 -0.00339479626227)
(0.796630148575 0.00599075137994 -0.00286097596549)
(0.796946863192 0.00561218240492 -0.000683690688894)
(0.794582518895 0.0149390729479 -0.00354452607965)
(0.79502539703 0.0134424683221 -0.000688533730849)
(0.796546332245 0.00598195344619 -0.00202035081061)
(0.79761316566 0.0201186196865 -0.00595557146041)
(0.792728654597 0.0173437495006 -0.00409199632495)
(0.795293631704 0.0087197673992 -0.00553922030837)
(0.794582965568 0.0083249760882 -0.00337805184643)
(0.795848373289 0.0197998065533 -0.00538812749075)
(0.794878034598 0.0172997542843 -0.00274396620069)
(0.795062499668 0.00893863185643 -0.00624914354715)
(0.802763383767 0.0206585781159 -0.00547991586541)
(0.805111765601 0.024591829486 -0.0060160284767)
(0.795600368911 0.00967395953363 -0.00460643562566)
(0.800902326765 0.0119325094564 -0.00475470723192)
(0.800384114365 0.0213681976509 -0.00274654082213)
(0.797667085263 0.00886329180375 -0.00670562596255)
(0.807379938877 0.0238091995021 -0.00364820552608)
(0.799682639561 0.019303320619 -0.00575329303091)
(0.798919724478 0.0160935860067 -0.00427478851657)
(0.796254795711 0.00649381738703 -0.00285640971256)
(0.799217551623 0.00822633401195 -0.00429524418355)
(0.797025984632 0.0167245146784 -0.00261889966015)
(0.801768832411 0.0185554853037 -0.00484219234007)
(0.79624145839 0.00861533462511 -0.00491245620237)
(0.804291037126 0.0209788866929 -0.00547796980007)
(0.807898883923 0.0198460587227 -0.00463244523719)
(0.801872229892 0.00917519770665 -0.00378334984481)
(0.798436112149 0.00964337992599 -0.00244988678461)
(0.804838654701 0.0194186557329 -0.00234706165041)
(0.799120746428 0.0110055727685 -0.00581898575464)
(0.808583996982 0.0215496966714 -0.00367837470061)
(0.7966087059 0.010500760231 -0.000288409037647)
(0.795600276121 0.010506796811 0.000785024962317)
(0.798605506318 0.00403290750705 0.000306036757155)
(0.799079585796 0.00403397746982 0.00138046620691)
(0.795750112029 0.0112722762251 -0.000179236930035)
(0.79680096865 0.00946196640434 0.00126857153542)
(0.798475975063 0.00399949978769 0.000264766445507)
(0.797929000897 0.0114518154052 -0.00150970463899)
(0.797401599058 0.0142506699324 -0.00310546346229)
(0.798109728423 0.00429760860605 -0.00014951594939)
(0.799214866683 0.00524521611453 -0.00181502596991)
(0.796536786786 0.0128281719408 -0.000555121348684)
(0.798934526211 0.0129282081161 -0.00283147968224)
(0.798646647273 0.00395214772052 -0.001160202123)
(0.798949323324 0.0109246417888 -0.000636406167673)
(0.800359724254 0.0103879601455 -0.00151356404248)
(0.799569400028 0.00430749746607 -0.00111572019128)
(0.7991176627 0.0047830102309 0.00048127986427)
(0.800034488599 0.0113784626009 -0.00170751681001)
(0.79974289405 0.00959261476914 0.000152350543179)
(0.799261982362 0.00475673417411 -0.00075258991968)
(0.802923907102 0.0146306484837 -0.00425142010911)
(0.800350105011 0.0160145230055 -0.0040613790185)
(0.799875929096 0.00646455572836 -0.00337837893254)
(0.798219858305 0.00639689726791 -0.00142374906678)
(0.80286088012 0.0164515689423 -0.00453231774083)
(0.801113388681 0.0138643628777 -0.00206001191628)
(0.798080809813 0.00575763375142 -0.00306168423039)
(0.806023660738 0.014243437133 -0.00463982032604)
(0.808203037865 0.0179002670843 -0.00415981661412)
(0.799349098143 0.005939588749 -0.00188330004455)
(0.802170492033 0.00632734556189 -0.00246387785162)
(0.805671783527 0.0167505914065 -0.00229327044389)
(0.800146818956 0.0046502615403 -0.00407646013169)
(0.808857101993 0.0153495547188 -0.00312137939412)
(0.803437727179 0.0127938797217 -0.00294958019071)
(0.802477012619 0.0106602530675 -0.00272711089141)
(0.798880882762 0.00382092555441 -0.000900106468886)
(0.800590023328 0.00494868642611 -0.00218406640346)
(0.801861800501 0.0120201121285 -0.00115109472818)
(0.804349014487 0.011612925648 -0.00277105627393)
(0.798486031404 0.00498934129628 -0.00224975690238)
(0.806202294725 0.0134777739894 -0.00351094306871)
(0.80781868866 0.0117869816083 -0.00174265824688)
(0.802277756735 0.00512726600795 -0.00238895544762)
(0.799830569528 0.00587853034104 -0.000506482597672)
(0.806353997967 0.0118935194403 -0.000838710682956)
(0.80059952206 0.00640335530017 -0.00342499708871)
(0.808708136833 0.0132326530256 -0.00223191012824)
(0.804309595882 0.00862186699527 -0.00242095294604)
(0.803082127368 0.0101237038284 -0.00266548996704)
(0.800797906223 0.0042486497444 -0.00216269699108)
(0.799292725181 0.00452338642571 -0.000723493084679)
(0.804756031176 0.0101506274917 -0.0026734414793)
(0.803564346411 0.00835350573883 -0.00161110187922)
(0.798516356282 0.00372944211209 -0.00171449652406)
(0.807681805265 0.0101148114372 -0.00183008917208)
(0.800049213141 0.00307998254181 -0.000581193774854)
(0.806486458792 0.00994255115484 -0.00115854074999)
(0.807067540938 -0.00436489857494 -0.000149064194513)
(0.804438544055 -0.00526030443907 -0.000234855804466)
(0.802448317249 -0.00488613227189 -0.000315211027743)
(0.801867468866 -0.00287900286257 -0.000645884180243)
(0.802974774143 -0.00238268288426 -0.000683883202883)
(0.801342838633 -0.00712936095023 -0.000548657079703)
(0.80676157854 -0.00492309340468 0.000647250015385)
(0.804317367407 -0.00585686878669 0.000295501841721)
(0.802245633947 -0.00534096621724 -0.000292978834317)
(0.801556180027 -0.00282495784994 -0.00207793821424)
(0.803096903801 -0.0023063630873 -0.00211578174275)
(0.801163257523 -0.0069923717685 -0.00137910660185)
(0.824218056595 0.00403548108636 0.00253669716553)
(0.818520223831 -0.00148413834445 0.00954280426475)
(0.79062145598 -0.00798018423263 0.0151097630753)
(0.788375377269 -0.00582259172601 0.0080983299476)
(0.791760413619 -0.00347040630595 0.00326189142072)
(0.793805433561 -0.00198335649221 0.00084998269346)
(0.799024850843 -0.00102171226529 -0.000239171247192)
(0.794702080007 -0.00200080998232 -0.000352702465155)
(0.829328565876 -0.00475713631605 0.000121988628492)
(0.820362116644 -0.0143051030716 0.00369907815028)
(0.802838100127 -0.0154873107051 0.00487380064875)
(0.797086840875 -0.0114986655892 0.00249003474991)
(0.796762611216 -0.00771338806878 0.000875200485691)
(0.796786999415 -0.00487964655486 -9.14411227402e-05)
(0.800021194564 -0.00288575113989 -0.000503862592281)
(0.796060171764 -0.00576122847756 -0.000493389332749)
(0.81805797008 -0.00603155047409 0.00123106694511)
(0.811907250513 -0.00925091375676 0.00143834148848)
(0.80460005496 -0.00937549291331 0.00128332446803)
(0.80048154393 -0.00765323201084 0.000747464396574)
(0.799271589035 -0.00605021370818 0.000182724222714)
(0.799011788609 -0.00423336047301 -0.000399624764573)
(0.801042019358 -0.00301116009271 -0.000618789303162)
(0.797691325073 -0.0073686994476 -0.000540415896441)
(0.813222912358 -0.00266130790059 0.000457150192316)
(0.809244322505 -0.00676098758319 0.000774391426679)
(0.804506872425 -0.00762340668025 0.000643749683495)
(0.801496242923 -0.00679361067159 0.000301918535695)
(0.800577815619 -0.00585782164947 -2.31656975068e-05)
(0.800298500443 -0.00433889522592 -0.000483964342549)
(0.801974769983 -0.00316250146764 -0.000668900678949)
(0.799357101607 -0.00826882084357 -0.000555188637283)
(0.801509260992 -0.00450664611828 -0.000379242952781)
(0.801375212052 -0.00346203953639 -0.000702614903259)
(0.802598576094 -0.00278087913617 -0.000717328031386)
(0.800540408172 -0.00790180457445 -0.000566782430811)
(0.650371719052 0.0427787933159 0.0171170637548)
(0.66801424871 0.0301856124945 0.0286177364091)
(0.742023315504 -0.0100809891109 0.0203059535245)
(0.76739774862 -0.00880651356259 0.00930899432214)
(0.783177536268 -0.00499847069298 0.00344104140819)
(0.790000470899 -0.0026301384547 0.000842872327049)
(0.798208764164 -0.00126125465294 -0.00129359044632)
(0.793774757334 -0.00228445702083 -0.000953213400492)
(0.782430306725 0.00209907512947 0.0117047246769)
(0.789327193244 -0.0196441630763 0.0184508820037)
(0.791042380415 -0.0244296418896 0.00882860490789)
(0.791474364733 -0.0167617735997 0.00433593600941)
(0.794344656164 -0.0100498309983 0.00156014048101)
(0.795120152465 -0.00601008668312 -2.83139544248e-05)
(0.799968619586 -0.00318816495544 -0.00162009156345)
(0.795640105994 -0.00610646841738 -0.00116801595563)
(0.819496386228 -0.00692718987661 0.00154231832662)
(0.811944757629 -0.0136561572595 0.00208491615876)
(0.804590790132 -0.0128955881733 0.00185745218118)
(0.799910648532 -0.00984530478211 0.00101051794488)
(0.798675618498 -0.00710435176263 6.4925009587e-05)
(0.798313930477 -0.00472796968678 -0.00124650856019)
(0.801041519826 -0.00319857702272 -0.00203674389392)
(0.797304719832 -0.00745195644693 -0.00144041034972)
(0.813690130042 -0.002655558635 0.000988184273733)
(0.809521120585 -0.00561276122494 0.0012336394671)
(0.804268408415 -0.00668361434204 0.000807041815138)
(0.800886004287 -0.00635781599131 0.000167685050724)
(0.799963563554 -0.0057483774532 -0.00046528102321)
(0.799755805935 -0.00440849666726 -0.0016007790129)
(0.801915671352 -0.00320729932976 -0.00217737932207)
(0.798929810022 -0.00831410535969 -0.00152125889843)
(0.801320875291 -0.004780483501 -0.000851878939013)
(0.801094573211 -0.0036446909017 -0.00198330946541)
(0.802717567692 -0.00279246623588 -0.00216413975564)
(0.800324666412 -0.00790535464835 -0.00143614378836)
(0.642806884151 -0.0198802210872 0.0258532872651)
(0.652747722023 -0.0234205716512 0.0230500483903)
(0.734076167171 -0.0246207011609 -0.000152321619614)
(0.764042446734 -0.0128302928552 -0.00206730140748)
(0.781278343674 -0.00602895809024 -0.00198621818502)
(0.788228322567 -0.00285118191107 -0.00305901761694)
(0.798245195431 -0.00132591548327 -0.00434253569378)
(0.792519481164 -0.00253989939584 -0.00312055136728)
(0.745779501555 -0.00581477118716 0.0240816781097)
(0.76433396009 -0.0301259590596 0.0152464590851)
(0.790271849924 -0.0261733637592 6.22446312763e-05)
(0.790204824275 -0.0173563560628 -0.000607023316637)
(0.792496689613 -0.010805836746 -0.00129581666622)
(0.793578003549 -0.00635885901372 -0.003543646816)
(0.799739499146 -0.00367020921412 -0.00432120182718)
(0.794333670632 -0.00707496111787 -0.0029989766269)
(0.821513571988 -0.00753700605014 0.00151558160363)
(0.812511744435 -0.0137524479298 -0.000267045009116)
(0.803722150172 -0.0135617524972 -0.00104298419048)
(0.798432142159 -0.0109108810944 -0.00126205875754)
(0.797282921911 -0.00845303906083 -0.00131886372317)
(0.796995123009 -0.00563539133469 -0.00365686745111)
(0.801116672475 -0.00380213631976 -0.00449023298105)
(0.79647157313 -0.00833829656763 -0.00312181987117)
(0.813564945612 0.00312996566774 0.000998101474526)
(0.81413344354 -0.00368371509457 0.00113977908357)