/*--------------------------------*- C++ -*----------------------------------*\
| =========                 |                                                 |
| \\      /  F ield         | OpenFOAM: The Open Source CFD Toolbox           |
|  \\    /   O peration     | Version:  v1906                                 |
|   \\  /    A nd           | Web:      www.OpenFOAM.com                      |
|    \\/     M anipulation  |                                                 |
\*---------------------------------------------------------------------------*/
FoamFile
{
    version     2.0;
    format      ascii;
    class       surfaceScalarField;
    location    "8";
    object      alphaPhi0.water;
}
// * * * * * * * * * * * * * * * * * * * * * * * * * * * * * * * * * * * * * //

dimensions      [0 3 -1 0 0 0 0];
oriented        oriented;


internalField   nonuniform List<scalar> 
92311
(
0.203877168977
-2.37664552732e-05
-0.000868248559299
-0.203704960087
0.000720187034296
6.42449737875e-05
0.203840840019
-0.000369970595093
0.000342167531658
0.203952471891
9.8671827203e-05
-0.000916250780816
-0.203908292254
0.000749893541898
0.000254758358705
0.203803711469
-0.000423545644405
0.000381911284512
0.204188518482
6.91585019341e-05
0.000179582034752
-0.0011014950469
-0.204471561539
0.000855978304606
0.00012656707593
0.000252028567769
0.000197368980811
0.000195375848036
0.000255951708074
0.203579930091
-0.00047720406548
0.000424646008938
0.000267274011862
0.0513073246952
2.97336862561e-06
6.86319501946e-05
2.56771324156e-05
4.69302175387e-05
-0.00046530110792
-0.0513580811849
0.000440877899112
-0.0511626038298
0.0510144030349
9.51782868828e-05
7.02844565984e-05
9.49915382231e-05
7.34487681083e-05
-0.000277642562505
0.000289383018949
-4.01229291095e-05
-0.000654993458234
-5.6759230216e-05
-5.76851968845e-05
-8.87855968504e-05
0.000408218778103
0.000636965271776
-9.4513507461e-06
-0.000314090184188
-0.000349698316024
-0.000337365160737
-3.36471428962e-06
0.000374141507414
-2.39493295024e-05
-3.98831284613e-05
-3.69129235831e-05
-5.90597248963e-05
0.000422543314132
7.2832840522e-25
-3.43986373062e-07
-1.21350978311e-06
-4.80684829659e-07
-2.98989818141e-06
6.67926971311e-06
4.0346231391e-33
1.11440426001e-07
8.41155466046e-05
8.29436228007e-05
0.000107801460253
5.98753787486e-05
-0.000369919524378
0.0003595370573
-1.10523315015e-05
0.010377173658
-1.57973647053e-05
1.10260381388e-05
-0.0103914462547
0.010394234632
8.15713530089e-05
-0.000101510822748
-0.0103818764395
-4.52944977134e-05
4.73474978056e-05
0.000183759297215
6.53488112044e-05
0.0509441063667
4.7095609612e-05
7.47516320449e-05
5.36113844227e-05
-0.00015863206514
8.25950512627e-05
0.0508525304581
0.000102357466104
9.08219228817e-05
0.000108404669449
-0.0509336429193
0.000136848546344
7.75633696868e-05
-8.63686342418e-05
0.0103997724597
-5.90437241228e-05
6.33739202689e-05
6.98783874435e-05
0.0126569999199
-7.29540286949e-05
7.3488637028e-05
-0.0126612272813
0.0126428906245
7.0681864644e-05
8.88624789385e-05
-0.0126495066136
-0.000394461969181
0.204134364085
-0.00168230908191
0.00143416623857
-0.20349107428
0.203787051368
3.01454981219e-05
0.000209197438059
-0.000185601419199
-7.87233208451e-05
0.203834660011
0.000388269387719
-0.000357271126503
-0.000828506787821
0.204307535625
-0.00167146817551
0.00152436314492
-0.203726124064
0.203754992156
0.000129485622042
0.000102910987102
-0.000153676903319
-0.000136885564829
0.203838780979
0.000364390081414
-0.000390383009935
-0.00049801001566
-0.00038470603834
-0.000322991483229
-0.00181160239179
0.204953680894
0.0017798966515
-0.204075521882
-0.000469140950024
5.74223590001e-05
-3.4902009772e-05
0.000126192700208
3.86633993312e-06
0.203582803408
0.000111037196564
-0.000136842601632
0.051444952835
-0.000205031504697
-0.000223044831473
-0.000212025824419
-0.000217210787013
-0.000520882743128
-0.0511403606982
0.000575815496552
0.0508828519613
0.000135579207948
4.36524284397e-05
2.66988364919e-05
2.0100987902e-05
5.93181492763e-06
-0.000113132089962
-0.000336437309306
2.8774513453e-06
-0.000372681208791
3.66540782171e-06
1.4313315405e-06
4.90605864678e-06
3.9587074771e-06
0.000291310780814
-2.19768112016e-06
-2.01028138969e-06
-1.90289985042e-06
-1.37682190457e-06
2.47382123444e-06
5.56794730546e-06
-7.19215662991e-07
-2.04913729576e-06
0
0
0
0
5.54453960802e-30
0
2.37563522909e-30
0.000475265555468
-0.000147514467354
-0.000115828424007
-0.000148936735822
-0.000115302467022
0.0514965237534
-0.000383899267735
-0.000115624425264
-7.54383061502e-05
-0.000123725059995
-9.09287742931e-05
0.0514105063525
0.000506550516275
-0.0513590961162
-3.60634688426e-05
0.000294616783369
0.0105707799021
4.37859034102e-05
-7.54053993595e-05
-0.0106782682133
-1.49383738802e-05
0.000119594016414
-0.0104523266571
3.50433757102e-05
-5.77867073725e-05
0.0104356391036
-0.00013522551771
0.0128704700469
-0.000160060653846
0.000166375604787
-0.0128552078242
5.06688822785e-05
5.77409917488e-06
-2.8675369429e-05
-8.41127951398e-06
-1.90311958653e-05
0.0508876324332
-3.99174845673e-05
0.0507879990934
5.74569071318e-05
5.42245152203e-05
7.6870216514e-05
3.41185348257e-05
0.000103790106345
3.68603239962e-05
-1.42219807733e-06
1.70619148894e-05
-1.35097592402e-05
0.0507773620114
2.62760786073e-05
5.38163960287e-05
-5.53480037262e-05
5.29386069472e-05
0.0126501983678
-1.18598430009e-05
3.01125322959e-05
-0.0104396968796
-0.000126855032207
0.0104335984782
0.000144385190261
5.71915624561e-05
6.58888561433e-05
0.0126322342545
-0.0126156476413
4.30580586317e-05
0.0126158914725
-2.47337104138e-05
1.8525561612e-05
-0.000478017285219
-7.77125701176e-05
-0.000122512627105
-0.000118804178554
0.000557351094056
-0.000387345598091
-2.83235260088e-05
-4.82433215864e-06
-5.05384171366e-05
-6.94960921659e-05
-7.77944642836e-05
-6.23852499775e-05
0.000183025392713
-0.000230235101817
-2.42476946559e-06
-1.42587682065e-06
-1.97253485793e-06
4.68511417706e-06
2.40951807799e-07
8.50762457025e-06
-4.87212247185e-06
-4.57307057223e-06
-1.46062838876e-05
-7.32661533273e-05
-0.000114903076466
-0.000104662373281
0.000531752112383
-0.00037314605396
-7.03984429727e-06
1.04384292326e-05
3.42900673285e-06
0.00014937205903
0.0128318093537
-0.000142728598685
-0.0128477695225
-0.0128271231276
0.000118578067653
-0.000146275456343
0.0127948679469
0.000127484995021
-2.05526120996e-05
-6.98702589332e-05
0.0103893759368
1.67681658846e-05
-5.36174548287e-05
0.01036302932
-0.0103697765335
-8.70493034986e-06
-0.0128433378167
0.00013664039052
0.0103774080392
-2.22161220671e-05
0.0128043130642
-0.000142333378942
0.012760481681
0.000135758372037
-0.000134733639824
0.000116692835987
0.000119214255541
-0.012771502901
0.0127423513887
-0.000109194004911
-3.52892097441e-05
-8.37289518223e-05
3.7403477815e-05
-0.000154243785602
-0.010362570286
0.010372385665
-5.01313263626e-05
0.0127288758746
0.000103555979663
-3.85166182881e-05
-0.000126335865587
-0.0127004108316
0.000123324199256
-9.06376036222e-05
0.0126800673335
8.2771953144e-05
0.000110607377414
0.0127136304091
-9.82287473932e-05
-7.51884320578e-05
-8.21013117091e-05
0.0103988624611
8.24520880829e-05
-0.000134445443822
0.0103794143203
-5.78680924949e-05
9.90460071311e-05
0.0103792733053
-6.99521560102e-05
0.0126920847842
-7.73334669651e-05
4.002277585e-05
-0.0126729782706
0.0126691155932
-6.10413543699e-05
-0.000101763997976
-0.0104066794238
0.01040777072
0.000121358494718
-0.0103920635658
-7.71850658299e-05
0.0103957625559
0.000100993161001
-7.98819594671e-05
7.30761887751e-05
-8.84613906368e-05
-6.20643078894e-05
0.000103564764165
-7.40095626299e-05
-6.84509627249e-05
0.000127012838371
-0.0126431128571
0.0126334124653
5.6108456498e-05
-5.8411955669e-05
-0.0103856890883
0.0103943005888
-0.010397695892
0.0104083081876
-3.16537904144e-05
7.33647952523e-05
0.000111045080855
-0.0126702414777
-0.000142387628819
5.59522228998e-05
-0.0103784552819
-3.08813640398e-05
-0.0126625261956
5.85298887233e-05
-0.010372850424
5.16786582622e-06
0.000145668425676
2.10315341373e-05
1.23044968875e-05
1.44913342159e-05
2.16281354667e-05
-0.000666218279028
0.000568432913538
-0.000223140499654
-1.27442227523e-05
-2.54065308411e-06
1.38492554474e-05
-1.33696991997e-07
-0.00060639021314
6.53072277501e-06
3.65971943483e-05
3.46981250099e-05
3.39767719646e-05
8.388106376e-05
-7.65949031787e-05
0.00035173793608
7.27400116164e-06
2.3127359902e-05
1.60553587098e-05
2.22186537011e-05
-0.000812719574897
0.00011474895007
-2.8992640342e-06
-7.63677006103e-06
4.70945151909e-09
9.05051219769e-06
-8.96755013128e-06
-4.85715638258e-06
-5.60999937789e-07
0.000248317607462
-1.75692905982e-05
-4.36666035494e-05
-2.92843576612e-05
1.55281726244e-07
-0.00030678896097
1.81269671601e-07
-2.25262557658e-06
3.11484831102e-07
-4.04092126967e-06
1.20171670782e-06
4.74807132462e-07
0.000355907841437
2.60582242247e-06
8.41926288404e-06
9.99441435966e-06
5.77738159906e-06
0.000202731891127
-0.00032976627988
3.99742535197e-07
-4.49686758033e-06
4.05176513537e-07
3.20147757155e-06
8.98291292311e-06
1.25790112358e-05
8.21112507155e-06
-0.000332609782971
0.000232407372921
-3.83775561783e-06
1.47895232061e-06
-0.000136074433597
-0.0128390443838
-0.000244177146278
0.0128648317809
0.000152840267535
0.0128546404694
0.000146404232835
-0.000131509123856
-0.0127944865906
0.000253474948004
4.30772245339e-05
0.010495993884
-6.83108067382e-05
0.000282627593443
0.0105556113876
-0.0106561725441
9.71260861955e-06
0.0128804185576
-0.000117020778628
-0.0127832180376
0.00015926346142
0.0104760572685
1.05144854264e-05
-0.000119812126373
0.0128852011074
-0.000186397211796
0.000141360798766
-0.0129008178205
0.00011218340664
-9.16729741762e-05
0.0128867335583
0.000188650574502
3.4222454223e-05
-5.81187238989e-05
0.000122741811163
-0.0104235069925
1.05837167924e-05
0.0104120464497
-9.71852997613e-05
0.00013576313946
0.0128715048974
6.48388451227e-06
0.0103976069008
6.21068122352e-06
-5.907350797e-06
-0.01044282119
6.24318387929e-05
2.54168479432e-06
0.0103902388873
-4.96079569925e-06
-0.000154088797661
0.0128531617039
0.000159160006125
0.0128781349399
-0.000158430212851
-0.0128596674265
9.25511578826e-05
-0.010411400266
0.0104115411022
0.0128629355364
-0.0104633075328
2.58767228321e-05
0.0126636085195
-4.78085120876e-05
-0.00011393007803
0.0104318489353
0.000134706052802
0.0104234788676
-8.20797608561e-05
-4.42112220752e-05
2.23664141531e-05
0.0126531188881
4.03744184998e-05
-4.64638022302e-06
-0.000118051551952
0.0104349085458
0.000143218424253
0.0126667374544
-4.44675726021e-05
0.0104285383034
-8.51564559558e-05
-2.86488642689e-05
0.0126536953955
1.29877225383e-05
2.15683291488e-05
-0.0126680381309
1.73615566147e-05
0.0126737668133
-2.13428906609e-05
3.93230808643e-06
-0.000126504548425
0.000147737004409
1.5294676052e-05
-0.010433098668
-9.63565640856e-05
0.0104250539581
-3.3736221956e-05
1.02735186327e-05
0.0126573152791
-9.39282914625e-05
-0.0126175734763
6.77322295965e-05
-4.73058780386e-05
3.65517402498e-05
0.000107211561406
4.33798838517e-05
-6.43028314458e-05
0.0104239910621
0.0104329623612
-4.07390698523e-05
6.55149676361e-05
0.0104425144335
-4.35935813971e-05
2.72492813694e-05
0.0126334977143
0.0104324543066
0.010471428583
7.59509177259e-05
-5.31640006377e-05
-4.84528089808e-06
8.30538163588e-05
0.0104693804374
-5.90657840222e-05
-9.44902776189e-06
0.0126168100032
2.23258332136e-06
0.0126315632019
1.60882890234e-05
1.95849525674e-05
-0.0104436280773
0.0104355193754
0.0126384384916
-0.000122037651996
-0.000107476837137
-0.000186538513282
0.000544877352098
0.203998907084
-0.000173575158439
-0.00050799105376
-5.60686196585e-05
-3.899903084e-05
-3.27810321664e-05
-4.54008232842e-05
-2.41373247349e-05
4.2358447918e-05
0.0509206606466
1.19191630332e-05
-0.00036029138999
5.56590018872e-06
1.06797708216e-05
1.09612879194e-05
1.04814372361e-05
0.000200857699064
-0.000312459339217
0
0
0
0
6.27181426434e-29
0
-4.97523309852e-31
-1.13186505236e-05
-4.83548992397e-05
-6.05216900849e-05
1.05200320466e-05
7.69454568957e-05
-0.000407699045769
0.0513856973775
8.75457112416e-06
3.07273021466e-05
9.00688768061e-07
0.0103696633191
0.0508195109437
-4.77124955597e-05
-1.84545455602e-05
-2.64160746291e-05
-4.6137648506e-05
-6.70022539411e-05
0.0508613848557
-4.85047547209e-05
-7.222551547e-05
-6.00726124498e-05
-5.51745253509e-05
0.000170749884515
-0.000163444837609
3.43675253521e-05
0.0104309512899
-0.000125829632405
0.000140259366202
-1.30350226424e-05
2.31814387822e-05
9.48141181448e-05
0.0104536768737
-7.47258816626e-05
0.0103376422404
-1.66354006117e-05
9.05718667008e-05
9.4851687919e-05
-0.0103775554405
-9.67205079008e-05
0.0509187353593
-5.47450674828e-05
-6.71164577048e-05
-5.54544917631e-05
-7.00309887473e-05
0.000169367187731
0.000216856717639
-0.000196282893332
-4.71607622494e-05
-5.23048422286e-05
-4.58496831508e-05
-5.92154645062e-05
9.93808496621e-05
0.000257324443574
0.0509802363396
-0.000213556138694
-1.40949204414e-05
9.31524167698e-05
9.96987693407e-05
0.010304987089
-0.000107371704546
-6.28011362819e-06
6.46022901265e-05
0.000117846603139
-0.010287347672
0.0102916573688
-0.000131788787521
4.75582844462e-06
-2.74276703749e-05
-1.19733848965e-05
0.000352920459341
-0.000738130493663
3.71098443008e-06
0.000115074483723
3.17474630258e-06
1.06754142676e-05
1.51587020677e-05
1.15225168056e-05
-0.000351100933099
4.87154405591e-06
3.30984443359e-05
1.31465379043e-05
1.62172099764e-05
1.2493777328e-05
0.000359912696829
-0.000392274473964
-2.86579197916e-07
1.89801975778e-06
-2.49150408557e-06
-3.78732339265e-06
6.00548989004e-07
1.39282489618e-06
-2.46728950385e-06
3.72807680003e-08
-0.00010882085113
1.09124487532e-05
1.09118570021e-05
8.87233329299e-06
0.000326289337036
6.4282025643e-06
-0.00032543401497
4.94667283173e-06
7.7350652265e-06
5.38493653506e-06
0.000184189381266
7.37272576025e-06
-0.000264521148602
-0.000179056297894
-0.0128450016375
-8.17463584363e-06
0.000129552603837
-0.000107889812966
0.012821078608
-0.000138749089074
0.0128318222341
6.14253486295e-05
0.0104038836729
-1.26079556422e-05
3.76839203094e-06
-1.94139808658e-05
0.0103822765651
-0.000118987331786
-1.60163386525e-05
0.0104155433425
0.0128100339019
1.72369568936e-05
-0.0126642879608
-3.39681917583e-05
-2.72378209829e-05
0.012668754457
0.0126834270389
1.21380855089e-06
-9.14501358542e-06
3.817744628e-05
-0.000120236649061
0.000135109685763
0.010416839105
2.08348261404e-05
0.0104178428263
-0.000103942467572
6.61401447169e-06
0.0126869358533
-9.28644000658e-06
-0.000101633707645
0.0103972129995
-0.0126419199948
-5.02822247452e-05
-3.02326775226e-05
0.0126462591246
1.08786359414e-05
0.0126222053729
-1.19200210264e-05
2.89246585217e-05
0.0104220655016
9.56554244524e-05
5.88291177022e-05
0.0104175996043
-8.20732992807e-05
0.0103924830131
0.0126328427496
-2.91066367005e-05
0.0126562686666
-6.04047581097e-05
-4.45017925328e-05
4.49084595289e-05
5.58128288926e-05
-0.0126469707044
0.0126571248365
-4.87784991726e-05
7.13661429329e-05
-0.0103645691213
0.010338257992
9.27141649243e-05
9.46039410926e-05
7.54773486188e-05
-8.73398761742e-05
0.0126629314277
5.88327997191e-05
9.74502532949e-05
-3.95522103938e-05
-0.012673307994
-6.25859279227e-05
-6.30887638025e-05
0.0126746163305
7.00100028767e-05
6.31951210449e-05
0.0126741294465
-5.49805096573e-05
7.16767716373e-05
0.0103195020658
9.02868678075e-05
0.000102568121426
8.03732584251e-05
0.010294248625
-0.000115878254525
6.72349443665e-05
0.010315845536
8.93439052159e-05
0.0126761403219
-5.36384137672e-05
0.0126816958144
-6.18968432902e-05
-6.13693532151e-05
7.07894640222e-05
5.95349157001e-05
-0.012686048332
0.0126906463516
-4.88504207973e-05
5.99824529726e-05
-0.0103148476179
0.000100708330961
0.0103199332628
0.00010920587117
7.59713524966e-05
-0.000123400522435
7.15727775016e-05
0.012686175578
9.25306321071e-05
-5.22342062286e-05
-0.000587354612929
-0.0494713646106
0.0493194257176
0.000668518686334
5.7122637389e-05
5.69437110268e-05
6.39756306648e-05
5.04635612084e-05
-0.000157786485161
-0.000673369200741
0.0498603685313
4.57504956695e-06
1.04977397667e-06
1.65844082438e-06
9.41777686625e-08
2.05640162959e-05
-0.0498430492654
0.00062804275239
-0.00106185327048
-0.0499645252062
0.0500678510304
0.000887089321096
-2.19837004337e-06
-1.0303917906e-05
-8.26321104225e-06
-4.92642046939e-06
9.71678209471e-05
-0.000709773041587
-1.19932014155e-05
-5.8258794631e-06
-2.14908205798e-06
-1.18721711453e-05
0.000128135431027
0.0501849763193
0.000571806719846
-0.0501432860997
-5.16343063235e-05
-0.000103151145344
-0.000270930458642
0.000416579566896
0.000171990190951
-9.2814910551e-07
-5.00938392241e-05
-3.90300791788e-05
-3.88794746754e-05
-4.42083959193e-05
-0.00056226293638
0.000632033101685
0.000212558124205
-4.02547493031e-07
-3.98299817968e-05
-2.89375848056e-05
-1.51359957817e-05
-0.000164755493809
-9.71671432187e-06
-0.00011029427653
0.000383530789893
-8.09541295783e-08
-7.29667439799e-06
-5.89547706197e-06
-7.59530244514e-06
-0.000268791971738
4.5521705842e-05
-1.83592571537e-05
-0.000148407203391
-0.000545656246381
0.000704078856179
8.58834810795e-05
-4.5655029475e-08
-1.88144868327e-05
-1.93775414558e-05
-2.14281011157e-05
-1.45915967419e-05
-7.3899055929e-05
-2.15696039344e-05
-1.51889918127e-05
-1.5037916438e-05
0.000662244136307
5.603737954e-05
-7.37119588927e-08
-0.000533123288373
0
6.51753673218e-30
0
1.29149322786e-08
0
1.1115818468e-08
5.99870551858e-28
-2.40307507466e-08
-1.5286576468e-07
1.49246539807e-07
-4.17287583766e-07
-2.07280022945e-09
-3.78486089303e-07
3.58037631391e-07
-1.23363103408e-07
0
9.72513741738e-29
0
0
0
0
5.24527390005e-27
-1.42303552984e-08
1.25201923855e-08
-4.55238754104e-08
1.77372895317e-08
-2.03834905418e-08
3.57489257398e-07
0
0
0
0
3.86040007001e-28
2.77698397119e-30
0
2.88117364779e-09
7.16265079541e-09
3.64206763405e-09
1.27052268994e-08
3.75172760909e-08
-3.84331394521e-09
0.00021774118082
6.14615613383e-05
6.09307173564e-05
6.50467056477e-05
5.76311493439e-05
0.0491802529157
-4.59032233206e-05
-8.35223386198e-05
-0.0495136725403
0.0491494924078
0.000380441521377
6.44067953189e-05
7.08795972616e-05
6.91781793784e-05
6.10271775739e-05
-5.91711026914e-05
-0.0495185703284
3.62283753805e-05
-7.40721853867e-05
-0.011567749705
1.21087820777e-05
0.0115689054133
1.13021997529e-05
0.0115761762378
6.43351761457e-05
3.79589165793e-05
-7.89621211326e-05
-4.61330400336e-05
-0.0115684814997
8.62142986741e-05
7.33030777849e-05
8.62563136818e-05
8.68793664763e-05
-0.00034761493805
0.0122757624497
0.012206692354
0.012173367062
0.0121556267048
-0.000234345798579
7.39907154133e-05
4.88430426878e-05
-7.23910629258e-05
-5.21413755214e-05
0.0115667827316
0.000465123970334
4.9466659475e-05
6.5036643228e-05
5.76181497722e-05
6.02062385533e-05
-0.000122204141307
-0.0496662402028
0.0496471094141
3.41482452567e-05
3.48864627962e-05
4.13750504635e-05
2.89907571254e-05
-0.000106493260061
-0.0497495417511
0.000534603339268
0.0115818405778
3.79282422949e-05
-7.6721112157e-05
-0.0115683689022
7.54909786471e-05
0.0116298344022
1.28234803806e-05
-3.39193761528e-05
-8.75180110635e-05
-0.0116088384854
8.495392996e-05
0.00092689931609
5.65849128976e-05
6.8345272468e-05
6.75890230641e-05
5.69809012886e-05
0.0491727172624
-0.000208845654087
-0.000172988199939
-0.000199897142269
-0.000164260333103
-8.58349393828e-05
-6.29025099723e-05
-7.24705933516e-05
-6.26275931401e-05
0.0495724688057
2.74165802409e-05
1.91782882344e-05
2.7372485799e-05
1.96405121138e-05
-2.38810267272e-05
0.0496745562339
0.000861025359164
1.86569910834e-05
1.27469932964e-05
1.46195041978e-05
1.11888061776e-05
-9.35961818025e-05
-7.17698602052e-05
0.0115754538695
8.89511336695e-05
0.0115214310489
5.71455405847e-05
-5.82878498134e-05
-0.011543606792
0.000135040853567
-0.000124723288381
9.66486469721e-05
1.59648348293e-05
-1.83981196814e-05
-9.99272265459e-05
0.0116343386745
0.0116234269319
0.000115564636854
1.14470632277e-05
-3.36409491132e-07
-0.000125609894986
-0.0116339997447
0.0498282802982
3.74379880923e-06
3.44474624857e-06
3.18572451589e-06
6.37780763215e-06
-0.00116185376525
-7.07791904908e-05
0.00123531793972
-9.59052592061e-06
-6.96335104514e-06
-6.50708667488e-06
-7.23570523592e-06
0.0503545795732
-0.00016874696416
-0.00156291529758
-4.98838343542e-05
0.0115097897215
0.000158001575175
-0.000153997718775
5.83248020767e-06
-3.05793391538e-05
-0.0115150300381
0.000218651345467
0.0115275464216
-0.000232324130035
0.000120809377749
1.59394521687e-05
4.0577516978e-06
-0.000135225703671
0.0116038719614
0.000137688734933
-1.32471593838e-06
3.53091303323e-05
-0.000160872687194
-0.011572781904
0.0115574611456
0.00074677433745
1.44686167846e-06
2.71885029929e-06
-5.20979356172e-07
7.40366220772e-06
-1.00891996525e-06
0.0500843497264
1.02317812942e-06
6.01157333475e-06
6.8239884037e-06
1.37070153448e-06
1.91845329352e-05
-0.0500060912024
0.00063408180488
-4.94264233543e-06
0.0116501074703
9.01938914474e-05
-0.0116489645307
0.0116283414158
1.62510674191e-05
-3.31033127759e-06
-0.0116447476619
0.000105389728779
0.0116402723172
2.13095437007e-05
-1.84706329109e-05
-9.69675621655e-05
-0.0116542771019
9.49379606805e-05
0.000970865603136
-1.13072110104e-05
-2.14781899359e-05
-1.84897663345e-05
-1.3937912956e-05
0.0503045411083
9.29893154558e-05
0.0501579326856
1.56666886754e-06
-1.31313326521e-06
-1.73327477732e-07
1.71446005486e-06
0.000101898319694
-5.96572323952e-06
-7.96964440274e-06
-3.19200498974e-06
-1.14457720965e-05
0.0502914597686
0.000743238525202
0.00012270152259
-3.66482412968e-06
0.0116119389916
0.00010769794353
-2.73510417921e-07
1.99040714289e-05
-0.0115855137231
0.000124131466155
0.0115753041366
0.00010314248258
2.38145188551e-05
-2.34800979932e-05
-0.000102750063512
0.0116266183153
0.00012079439628
2.21031596956e-05
-1.82601122894e-05
-0.000118464235412
-0.0115980106507
0.0115809223963
-1.65067955725e-05
0.0116282625094
0.00010761356636
-0.0116427818816
-1.38189308595e-05
-0.0115923739917
0.011573089412
1.90878412623e-05
0.000124755820394
-2.39335582566e-05
-3.39837938998e-05
-5.30513636591e-05
-4.71327507014e-05
0.000328046124886
0.000126476454171
-0.000209018407066
-1.7086114736e-06
0.000335520523154
6.62048526182e-05
-4.76182857462e-05
-4.10530349695e-05
-3.9488513826e-05
-0.000214084730407
-1.43883282955e-06
-1.21766970566e-06
-7.27626443207e-05
-5.5728072545e-05
-6.77159281398e-05
1.08214271431e-05
0.00048968338924
6.42056299344e-07
-1.167756124e-07
1.57453629415e-06
1.5607211573e-07
-8.15817625586e-07
-1.91267486523e-08
6.60169073504e-07
1.17253014192e-06
5.4462810589e-09
6.5248345586e-07
-1.20858279081e-07
-7.39383188222e-07
7.22495609546e-07
-4.03606426286e-08
9.54207352692e-07
1.06215126242e-06
1.98353439947e-08
1.7394233509e-06
-1.62854787186e-07
2.55534298633e-07
1.93851754993e-06
1.81713577106e-06
-1.10091339317e-06
1.34683703596e-06
-1.20678501383e-07
1.40004859536e-06
-9.7157814736e-08
2.75756162868e-06
9.52484817303e-07
0.000116987695588
-4.82639981181e-05
-2.67579163472e-05
-1.93642410951e-05
-9.9452232871e-07
-0.000155737954997
0.000229824159088
-1.76737597748e-05
-1.76740103367e-05
-2.43032018388e-05
-0.000127234853311
-3.07023409286e-07
8.58616783695e-05
0.000220848934587
-5.41666524774e-07
-6.35980543445e-05
-3.87426153187e-05
-4.12343989104e-05
-0.000153223764382
0.000370458373783
-2.04766991182e-07
-3.16613509249e-05
-9.83795896843e-06
-2.13963826327e-05
-8.30789182328e-08
0.0005371127826
0.000131976765472
-2.28459739603e-05
-1.18349953695e-05
-2.66935600804e-05
5.41279981049e-07
-8.92082465518e-08
-6.17038658643e-07
-2.30047471428e-08
5.23636315789e-07
2.40161510843e-07
-4.94305535812e-08
-3.54694605866e-07
1.85211476434e-07
-1.21452870252e-08
0.000156901250987
-2.92887506098e-08
-1.3173828337e-05
2.84876900047e-07
-1.47587376277e-06
0.000588250769577
-0.000111044057756
0.000691346984409
-8.19571105015e-08
-2.36689364949e-05
-1.33493687157e-05
-1.94888545161e-05
5.27256113728e-07
0.000123794829679
9.3815198903e-07
2.37257525253e-07
2.72814720704e-07
0.000711852951501
7.15889324296e-07
-3.45209825729e-08
-6.43316083471e-08
1.57023187969e-06
1.95196121177e-07
-1.7313413708e-08
-2.69755801515e-08
4.56050441617e-07
6.35006494814e-05
-5.94124897166e-08
-6.50281419966e-06
-1.83765729252e-05
-1.46201763303e-05
-8.60722471029e-08
0.000558035393608
-2.16785684835e-05
-1.65908857036e-05
-1.73581689935e-05
-0.000422278975959
6.12675809348e-05
1.35549319209e-07
-1.91004964045e-07
-2.45414453349e-08
-1.11874574674e-08
1.00412862835e-07
1.02133217657e-07
-1.16674066652e-07
-1.32167999106e-08
6.98260477002e-05
5.66862579132e-08
-1.33125805313e-05
-7.85090142826e-06
-2.23135013281e-05
0.000778733509784
0.000697500734863
-6.4433986311e-08
-2.40106375384e-05
-2.48814820176e-05
-2.448321978e-05
-3.36052541682e-08
-2.14557888492e-05
-2.87850688156e-05
-2.03649000587e-05
0.000791470954318
5.70229903697e-05
1.05874786661e-07
-1.43578738521e-08
-1.80033457811e-08
1.54694674733e-07
1.11366903062e-07
-1.70772891961e-08
1.56169914424e-07
-1.82222981067e-08
0.0124260189819
7.98617963873e-05
-4.42714837503e-05
5.26980386438e-05
-0.0124532226738
5.19561576687e-05
-0.0124190419604
0.0123861022923
-3.23972385135e-05
1.03689921932e-05
-7.11634694224e-05
9.5759849281e-06
-0.0115669273947
-8.60440597863e-05
-0.0115657212683
2.859516013e-05
0.0115630499795
6.44695412738e-05
0.0123921301449
2.38592080676e-05
-0.0115625214952
-2.87436637293e-05
-0.0124481612431
0.0124309984797
6.7677758647e-05
7.68591825147e-05
-0.0124586964687
-7.89862081778e-05
-0.0124374334124
0.0124149681958
9.30865125922e-05
-8.35523672086e-05
-0.0115697091806
0.0115691287931
-7.4628693644e-05
-4.05198456253e-05
5.55417277919e-05
-0.0115690465885
0.0124016380691
8.09759157512e-05
-0.0124644284472
-0.0115643141056
-0.0123745097288
0.000113127704299
8.70832377425e-05
-9.08600752445e-05
0.0123507573965
-8.98334285462e-05
0.0123928030762
0.000112322096057
-9.2371620944e-05
0.0115548606932
-3.52400884826e-05
-7.89604970243e-05
-6.23045052348e-05
8.64529579095e-05
0.0115531399594
-6.93589462606e-05
0.000136201574771
0.0123768675593
-3.88948772992e-05
0.0115360981477
-8.36136269534e-05
0.0124715567764
5.86346704115e-05
9.07889296339e-05
-0.0124882647922
-0.0124554134861
9.9954841632e-05
0.0124365077783
-7.60969253117e-05
6.20255346316e-05
-0.0115669471415
-6.57003194248e-05
-0.0115834876446
8.83354889177e-05
0.0116002805336
-0.0124767419042
0.00010894422061
0.0124568158464
7.68768701525e-05
-0.0115686693622
0.0124869702892
9.77160582696e-05
4.18098846095e-05
-0.0125017796287
-0.000117118633373
-0.0125030882246
0.0124960047945
0.000125036477926
-4.37551133244e-05
-0.0115893475396
0.0116129235955
-3.1668087306e-05
-7.49611414288e-05
-0.0115987430454
7.29098261405e-05
0.0124763313814
-0.012514945243
0.00010659326477
-0.0115738701828
-0.000143277920571
-0.0124372996803
6.00867721185e-05
0.0124228042785
0.000154163601089
0.0124150784741
0.000118359194699
-7.38920005955e-05
0.000101867656466
0.0115692824963
-6.04281616033e-05
0.0115951413403
0.000103576032285
0.012397096948
0.000127612304518
0.0115911447752
0.000114305701299
-0.000168984177948
0.0124185263468
4.66577380124e-05
0.00018221663481
-0.0123876268534
0.00019894374355
0.0123833008063
-0.000184756368461
-6.55047446647e-05
0.000114232420451
-0.000102048179803
-3.59814182586e-05
-0.0115736751453
0.000140743860311
0.0115546601097
-0.000158341967555
0.000214855008675
0.0124228881373
0.000126280672389
-0.012463133089
0.000160040865552
2.64876398807e-05
0.012457769318
-0.000134413199133
0.0124878287751
0.000143379152569
-3.36020661727e-05
0.0116138922855
-1.08844245162e-05
-0.000110532889419
0.0116396725188
0.000105080040694
0.0124875560146
0.000169160967241
0.011616145281
0.0124577700444
0.000186178167895
1.40991234574e-05
-0.000217631258708
-0.0124907206415
0.0124988951654
0.000221521405118
-4.73055522678e-06
-0.0116044702807
0.0115927211073
-7.69339778345e-07
-0.000118118520368
0.000109411793002
0.0124644706522
0.000193420779093
-0.000258540393507
-0.0124319735574
1.98607400898e-05
0.0124529841489
0.000276386724726
-5.87959409929e-05
0.0123871458077
0.000227219170479
-6.91912483563e-05
-0.000211807025219
-5.17585431488e-05
0.000182322757235
0.0115084248931
-0.000184428330088
-2.40031642434e-05
0.0115378440618
0.00015721992494
0.0124101702521
-7.68421592239e-05
-0.000256530261953
0.000245899315607
-5.18976955344e-05
0.0115355840654
0.000177108612795
-0.000288556879271
-2.99778967731e-06
0.0125074996759
0.000307815294765
-7.06784030973e-05
-0.0124753016747
0.000319005150597
0.0125591348503
-0.000328485735
-0.000104889656114
-3.00890610609e-05
0.000203266554276
-0.000212424816715
-0.0115270452844
-2.73384604138e-06
0.000199638099508
0.0115269531049
-0.0002890390744
-9.48477527482e-05
0.000189274143501
0.000331255745077
0.0125724824328
-7.970331159e-05
-0.0124707945147
0.000272136825768
-1.30012409873e-05
0.0124916812575
-0.000247661521878
0.0125039320406
0.000249484515066
5.2106484629e-06
0.0115740470124
7.60983144635e-06
-0.000145681533285
0.0115876162935
0.000128440292643
0.0125191698491
0.000270426481894
0.0115607955084
0.000294651006866
-3.19671125264e-05
0.0125271303139
-0.0125420641856
-0.000309830211031
0.00030087617728
0.0125795785423
-0.0115515304383
3.70759498125e-05
0.0115428351132
2.70837316048e-05
-0.000154545524899
0.000133009786992
0.000292332284933
0.0125785062591
-0.000166940132008
-0.0125310870176
5.15905318165e-06
0.012535014467
0.00016240327328
0.0125108643544
0.000144901847774
-0.012516366928
-1.68308467127e-06
9.69435647384e-05
0.0116516776599
-3.30743994772e-06
0.0116717271681
-0.0116719719541
8.67689723281e-05
0.0125130362052
-0.0125342715203
0.000144759679283
0.0116657362843
9.16369606696e-05
-0.000188733669809
0.0125413614633
4.05227227403e-06
0.000179770947708
-0.0125198262189
0.000210450851661
0.0125300986169
2.6972509839e-06
0.000101042907039
-1.24018173236e-05
-0.0116485149233
9.90230763326e-05
0.0116350625963
0.00019565286009
0.012551103249
9.39059361691e-05
0.0125575038753
0.000165193843211
1.04294023114e-05
-0.0125524836544
-0.000176164217269
-0.0125682624342
0.0125751387385
0.000156771504109
-1.88185541212e-05
-0.0116525063506
0.011637705225
-1.16125041544e-05
-8.97166284912e-05
-0.0116692055148
8.62920242699e-05