/*--------------------------------*- C++ -*----------------------------------*\
| =========                 |                                                 |
| \\      /  F ield         | OpenFOAM: The Open Source CFD Toolbox           |
|  \\    /   O peration     | Version:  v1906                                 |
|   \\  /    A nd           | Web:      www.OpenFOAM.com                      |
|    \\/     M anipulation  |                                                 |
\*---------------------------------------------------------------------------*/
FoamFile
{
    version     2.0;
    format      ascii;
    class       volScalarField;
    location    "8";
    object      alpha.water;
}
// * * * * * * * * * * * * * * * * * * * * * * * * * * * * * * * * * * * * * //

dimensions      [0 0 0 0 0 0 0];


internalField   nonuniform List<scalar> 
28582
(
0.999997260975
0.999997831376
0.999997852168
0.999997883131
1.0000011953
1.00000096474
0.999991817456
0.999993779598
0.0518211023355
0.0567723205567
4.17104638381e-05
0.999993124267
0.854276321573
0.858926718484
0.999996383021
0.999998394562
0.861349951383
0.99854837864
0.998538181066
0.999995639949
0.999996509833
0.999995805974
0.999997937009
0.99999696001
0.9999952758
1.00000095392
0.999999935944
0.999992143943
0.999998238611
0.0569240417466
4.23773615629e-05
-4.74828418514e-24
0.99998882823
0.999986489762
0.877736243435
0.859000421712
0.998406001202
0.99999843456
0.999998122019
0.999995266567
0.998629202373
0.866276425888
0.998616262284
0.998770292031
0.0543106195212
0.0572134678059
0.000373533116301
0.000647359395939
0.0554287727494
0.00109876244461
0.998386222332
0.998438154095
0.855651381408
0.85404681018
0.998492485176
0.855964628
0.998385502443
0.998413815902
0.998378404303
0.857033024752
0.858641846194
0.998415414021
0.857161987186
0.998385858606
0.998422920414
0.998380735541
0.864027394081
0.861038186018
0.998406727678
0.863986534334
0.998413826449
0.998559946078
0.867263001676
0.866866645866
0.998470968565
0.865556498613
0.865498727669
0.998480320819
0.998544187781
0.866531018449
0.867948702532
0.998501429763
0.86651313468
0.998500371344
0.865408022017
0.0494477817324
0.00104952426713
0.0465681592212
0.0483866624431
0.000817303008358
0.000874682213867
0.0573402116128
0.00013019511791
0.000325752286166
0.0570024961431
0.000213206635283
0.0567436997172
0.00037634701594
0.998471622065
0.998784604869
0.867939660425
0.876899875757
0.998551030341
0.998681571858
0.867576665964
0.998305248056
0.99830252632
0.862426907833
0.857645870659
0.998378630782
0.998186086767
0.861511706051
0.859385230662
0.854833119032
0.998305617052
0.998365467785
0.856062513378
0.99825834831
0.860241246736
0.998647233122
0.867945689685
0.867748603594
0.998727058563
0.868451709042
0.998761821042
0.868259687054
0.998837805029
0.998830410687
0.867767855664
0.865929337457
0.998853505707
0.998830318093
0.867654037854
0.998697406466
0.998616089781
0.867568651986
0.868816007055
0.86961525484
0.998731895437
0.868792128106
0.870495575235
0.869577223512
0.998769718779
0.998797048312
0.86684605142
0.998776725392
0.868317612395
0.999999868536
0.99999719198
0.0571331045003
-1.05702587618e-28
0.999988859383
0.854379069945
0.999994946889
0.999989463376
0.864767451991
0.867160722441
0.856637416986
0.999988011396
0.999990710723
0.853764419496
0.852690602777
0.0510043284443
0.0575641564661
0.0590073565548
0.00047309659453
0.000409659227431
0.000517352453667
0.0599273678542
0.0597544276049
0.998204249365
0.998216097021
0.8559150071
0.855018985845
0.998172441363
0.856559157918
0.998236097966
0.998702574463
0.998778689091
0.863340502615
0.864217727575
0.998706968534
0.998790505251
0.862505678084
0.99855320562
0.998726642428
0.864731349546
0.863945383547
0.998710110896
0.862092017115
0.9985904994
0.998334895161
0.998098696202
0.856706862778
0.860349055259
0.998077923865
0.859353603915
0.998374501844
0.997525542989
0.997799573266
0.854780277058
0.851634766017
0.997768316386
0.853217281699
0.99755824027
0.997492678463
0.997575976303
0.854410969291
0.851855949239
0.9975172186
0.853558720725
0.997534651716
0.999998956978
0.99999908382
0.999998308656
0.999998028573
0.0261846213661
0.0276062171801
0.0240057583159
0.0254543488479
0.0254505592862
-1.76324152623e-38
1.5732390267e-05
-1.33116628663e-27
2.47809587331e-06
-9.63345225637e-27
3.07081114587e-07
1.000000657
1.00000122149
0.946747413809
0.946007435692
1.00000094282
0.945587285401
1.00000035913
1.0000005383
0.945660820653
0.946712010795
0.999995844009
0.999999437974
0.999998079348
0.945281233302
0.943802740622
0.946746890475
0.946343251903
0.999998451243
0.999998730354
0.94330744769
0.940313008973
0.945493925324
0.942045663626
0.999997924575
0.999999242695
0.947348851181
0.946486426576
0.945859688798
0.9999989566
0.999998759641
0.999999401959
0.945475641262
0.943253244343
0.945035574441
0.942732806035
0.944749426993
0.942248113271
0.0254127214061
0.0254635500124
0.0266629140662
5.20758242987e-05
3.14437809318e-05
4.77139870925e-05
3.19001658364e-05
5.65884135528e-05
0.000209794706482
5.95419358804e-05
0.000191392136265
0.0253055695696
0.0245427146664
0.0271478211394
0.0251636192119
0.0256084045989
4.32114659536e-05
2.64276425646e-05
2.4097360159e-05
9.74033007915e-06
0.0276873376161
0.0262125594526
0.0268095512593
3.39655065133e-05
6.58694464319e-05
1.02369876476e-05
1.91697717192e-05
0.0246038476571
0.0243626244231
1.53133501785e-05
6.62508257867e-06
6.68026671023e-06
0.0262239634587
0.0252454686647
0.0262233762267
5.75847920961e-06
6.96753546296e-06
5.84785969172e-06
6.72953876213e-06
0.999959089973
0.999949052472
0.947512460452
0.946364759772
0.999937728272
0.947207645195
0.999960613178
0.999966635284
0.999955176971
0.946323435331
0.946922782471
0.999941254999
0.999969625719
0.947213334651
0.999856835496
0.999920599291
0.945674010852
0.945321429727
0.999903713472
0.999858809918
0.945210033961
0.999955589051
0.999949763285
0.946465336232
0.946082933336
0.999964361064
0.999939265123
0.946404940424
0.999938674904
0.999916867095
0.946143597198
0.946874519577
0.999924451909
0.999942598595
0.946129769601
0.999881001364
0.999915991501
0.944787943926
0.945690637804
0.999853151407
0.999924638506
0.945129309509
0.999819287554
0.999733535635
0.944250415875
0.944276959944
0.999775317527
0.999741874326
0.944696328271
0.999893312717
0.999914534167
0.946148765474
0.946798275175
0.999912138404
0.999910245967
0.946000869119
0.999845333074
0.999897554636
0.945295851809
0.946736853462
0.999806464516
0.999911065302
0.945712820398
0.999708088125
0.999731557349
0.942724739425
0.943644020418
0.999732506691
0.999707191231
0.943009381368
0.999700181294
0.999751820418
0.94173036903
0.940181465394
0.999742992987
0.941895585695
0.999715580957
0.999753950388
0.999856481293
0.944605652142
0.944560443858
0.99977985743
0.999817569701
0.943785149861
0.999750275471
0.999771355279
0.941046209799
0.943586042505
0.9997738933
0.942665764674
0.999738421599
0.999890316502
0.999904840314
0.947358613433
0.948421392443
0.999903156898
0.999898652396
0.948095619745
0.999890699188
0.999897010457
0.94716037307
0.94638825223
0.999905553218
0.9998949245
0.947312425388
0.999909937046
0.999891478936
0.946144570745
0.946761358332
0.999898242344
0.999900488498
0.947073968865
0.999886723549
0.999878942065
0.944538190699
0.945466908425
0.999857979938
0.999892465172
0.944573385689
0.999888041126
0.999842873054
0.943802471367
0.943428856127
0.999845231975
0.943860704992
0.999885426717
0.9998865411
0.999889323059
0.945223582099
0.944232193604
0.999888047841
0.999887460558
0.944378164598
0.9998862762
0.999882785843
0.943108201613
0.943480122552
0.999884513432
0.943668200916
0.999888438254
0.999876635449
0.99987891967
0.943906272957
0.943914796733
0.999874717267
0.999883961209
0.943081965339
0.999863936619
0.943025462671
0.999869560416
0.999997282138
0.999998778789
0.999998173511
0.999993922156
0.999986396918
0.999983091441
0.999997852051
0.999997989421
0.999997812069
0.999990423832
0.999987086891
0.999989651051
0.999959435525
0.999989788409
0.999980226372
0.999996664487
0.999999793453
0.999998802126
0.999987075087
0.999936529398
0.999992157653
0.999990800082
0.999977220687
0.999985394849
0.999996201901
0.999992626254
0.99997741661
0.999981236531
0.999993485635
0.999996971897
0.999997716246
0.999998546371
0.999998013288
0.999992739022
0.999986148345
0.999992779448
0.999994918301
0.999997833043
0.999998884464
0.999998182499
0.999993752091
0.999987830351
0.999988967243
0.999996336805
0.999994720113
0.999987862321
0.999988078626
0.999994610636
0.999935974797
0.999985482649
1.00000212465
1.00000483925
1.0000005769
0.999920761796
0.999774138389
0.999834752495
0.999912046571
0.999973234836
0.999995108169
0.999999573946
1.00000020351
0.999996861996
0.999961227624
0.99993878247
0.999984332319
0.999992476689
0.999997711552
0.999998669628
0.999998433507
0.999997215044
0.999992002193
0.999991598422
0.999998602969
0.999998807561
0.999998890438
0.999998511013
0.99999766568
0.999996212631
0.99999581947
0.999997084713
0.999996463161
0.99999384809
0.999994116607
0.999997132833
0.999937141417
0.999998177119
1.00001466988
1.00001973233
1.000008864
0.999964741948
0.999852801407
0.999906355761
0.99991205164
0.999986686605
1.00000570035
1.00001324348
1.00001541565
1.00001075398
1.00000193536
0.99999191826
0.999998514257
1.00000041203
1.00000289632
1.00000401113
1.00000401337
1.00000327392
1.00000233169
1.0000014265
1.00000028104
1.00000109712
1.00000147393
1.00000148221
1.0000012504
1.00000081234
1.00000058787
1.00000069782
1.0000008576
1.00000222259
1.00000223063
1.00000192507
1.00000164052
1.00000146278
1.00000154791
1.00000181833
1.00000032307
1.00000114777
1.00000231409
0.999999151577
1.0000058251
1.00000616661
1.00002374941
1.00003858518
1.00002735539
0.999997458057
0.999950631482
1.00000028959
0.999995560808
0.999995990193
0.999997166308
0.999999997972
1.00000000672
0.99999746232
0.999988215461
0.999985164163
1
1.0000004192
0.999997618415
0.999995282554
0.999997164958
0.999997144794
0.9999979505
0.999995510074
0.999990102167
0.999991876535
1.00000258085
0.999998258441
0.999995263811
0.999998231852
1.00000019427
0.999999639074
0.999996748738
0.999988199088
0.999990706769
0.999991688803
0.999992589379
0.999998538978
0.999997100379
0.999991895409
0.999989588961
0.999991844552
0.99998992466
0.999989752353
0.999996341935
0.0424633324861
0.0484993541189
0.051795606609
0.0556444617923
0.0552754667524
0.0558999590761
0.0591256852536
0.0596734273413
0.0280129158768
0.0338946902386
0.0422825828
0.0463394031669
0.050873870695
0.0548899806548
0.0546289419075
0.0558492748894
0.0575005370383
0.0564830171073
0.0274308858929
0.0345554842765
0.0428167951827
0.045398021445
0.0499171846668
0.0536517379033
0.0538870726889
0.0553647504737
0.0567317025772
0.0557866431172
0.0366799494697
0.0447060396855
0.0466829846675
0.0496246381303
0.0519121813398
0.0527704244973
0.0551618182596
0.0566063122138
0.0559536734792
0.0497169767915
0.0523916780576
0.0533818849068
0.0532327609968
0.0564719474822
0.0569368582141
0.0557123730044
0.0591054963606
0.0578405927689
0.0556410694406
2.49595572929e-05
5.09179873744e-06
2.12055831532e-05
3.13025691291e-05
3.21905640409e-05
2.23439087096e-06
-3.9907876819e-26
-1.48534186668e-25
-3.60633197299e-25
5.43756080405e-05
3.18516073411e-05
2.38390746526e-05
5.72653959826e-05
3.80647169797e-06
-8.18029595031e-27
1.64461039719e-05
1.37632411914e-05
6.31104621256e-07
9.43551403073e-26
3.77920578172e-05
1.54179002424e-05
1.37134376087e-05
2.04839146139e-05
3.58185548615e-06
1.32348898008e-24
-4.55774726155e-44
2.90480872043e-05
2.99595045985e-06
-3.92676872451e-26
2.61835872397e-05
1.58623058192e-05
1.09806642365e-05
2.41155475275e-07
-5.16987882847e-27
-1.24738489213e-27
3.95329449089e-05
7.36324959435e-07
-4.181668446e-28
2.58441355728e-05
3.24003355483e-05
2.62154343903e-05
6.27774573182e-05
2.7774944425e-05
-6.67914722682e-27
-8.35956591366e-27
4.60332813164e-05
-3.59789676512e-27
-4.26958599322e-26
7.30786275028e-05
0.99997673867
0.999991891126
0.999991847357
0.9999592843
0.999978029277
0.999961585963
0.999976735126
0.999986231632
0.999991659669
0.999977111053
0.999960027934
0.99995857146
0.999960447115
0.999958489577
0.999990668004
0.999985836605
0.999967065045
0.999982534754
0.999986614468
0.999990444213
0.999966952172
0.99998500664
0.999975553385
0.999989850645
0.999984284982
0.999968047835
0.999977018739
0.999987754575
0.999977808816
0.999926275919
0.99996253734
0.999921555012
0.999979916756
0.99990473993
0.999970359599
0.999992601958
0.999971355261
0.999979973456
0.999991816136
0.999997995169
0.999985085208
0.999993327726
0.999934966136
0.999962446561
0.999958659573
0.999869612112
0.999945883954
0.999943335011
0.999960839127
0.999982308048
0.999976746599
0.999990533564
0.999981450397
0.999991294659
0.999986484518
0.999997304161
0.999988088099
0.999937435406
0.999983132651
0.999966094298
0.999997031246
0.999983252599
0.999997877265
1.00000016506
0.999994750053
1
0.999999235233
1.00000055484
0.999999442747
1.000001272
0.999965230459
0.999974706022
0.999979164252
0.999971421042
0.999986727647
0.999992658414
0.999997680946
0.999997684052
0.999987405047
0.999998836865
0.999998883103
1.00000039467
1.00000223774
1.0000075575
0.999959089758
0.999981354423
0.90338794166
0.90405977021
1.00000990264
0.999999334433
1
0.897081756713
0.863620072494
0.896782657447
0.86539845118
1.00000265798
1.00000001209
1.00000139825
0.853423241015
0.84623370243
0.857113564349
0.85269430109
1.00001233871
1.00000885705
1.00001912599
0.84846149477
0.863199945086
0.854220673313
0.865579958204
1.00003179024
1.00003076644
1.00004052553
0.865460807853
0.871637268573
0.867524672221
0.872671304595
1.00003597155
1.00004248184
1.0000389863
0.873230950117
0.876050380721
0.874248013876
0.873464675344
1.00001472143
1.00002801695
1.00001755688
0.877161646857
0.869048037288
0.873741872179
0.868442521599
0.999962335724
1.00000428805
0.999993804913
0.864753419651
0.860863249261
0.864414336243
0.856832241126
0.999947127895
0.999976388842
0.999966749305
0.866925354953
0.850513290357
0.861675059849
0.85614141254
0.99999654786
0.999996351657
0.937724852071
0.927878504584
0.940071373038
0.932584890994
0.999996943212
0.999999084284
0.999998795403
0.922856465802
0.903094674073
0.927868854057
0.902863189118
0.999995232
0.999994505108
0.99998969061
0.895200436011
0.865827658298
0.892013597258
0.863906833982
0.999999492728
0.999993334825
0.999993439231
0.858798641764
0.854927561776
0.859989805451
0.859551462892
0.999998634478
1.00000131249
1.00000237254
0.855752938235
0.864774230815
0.860703814174
0.867100655977
1.00000018812
1.00000373806
1.00000459536
0.866991996654
0.872620301565
0.869381132003
0.873128448553
0.999999809704
1.00000244183
1.00000167959
0.87424157542
0.873239466321
0.874604404689
0.874922043612
0.99999224847
0.999998115879
0.999994621623
0.873724514795
0.86782720343
0.873487901035
0.864028909477
0.999986545044
0.999992685192
0.999990449743
0.863815075808
0.856186578873
0.861650895023
0.858775616319
0.999993064373
0.999992394443
0.999998204948
0.861571777563
0.858880821858
0.864088438877
0.861221481802
1.00000092062
1.00000016291
1.00000230194
0.94168396916
0.933521338571
0.942167474047
0.938233622392
0.999999276098
1.00000179495
1.00000020487
0.928437669828
0.901813155509
0.931995715556
0.896957607388
0.999994616602
0.999998593369
0.999991941879
0.890332485246
0.863368202268
0.883750871531
0.861642679568
1.00000023698
0.999999002955
0.99999813987
0.860526587084
0.861039681669
0.861126990432
0.86530438088
0.999997910615
1.00000324114
1.00000233035
0.862503208529
0.867974742543
0.867351474305
0.872520310382
0.999996792066
1.00000222901
1.00000216068
0.870301784373
0.873331893078
0.874239362136
0.87699426494
0.999996817579
0.999999964636
0.999999883161
0.874778983379
0.875328063709
0.87812494849
0.873896460802
0.99999256526
0.999997389665
0.999993257301
0.872804391488
0.862762281743
0.870048911212
0.859638841424
0.999991378199
0.999991548197
0.999991918171
0.860818041601
0.859847336753
0.858820525537
0.861040860495
0.999998823058
0.999997808484
1
0.865625195202
0.861579588894
0.865998133048
0.861325906135
0.941721147284
0.938520704541
0.999999501922
0.999998125585
0.932003545468
0.894765590113
0.889381336645
0.999995541399
0.999995665044
0.999991547581
0.881658998681
0.861694079084
0.877939005686
0.859752000235
0.999998572951
0.999995728903
0.999997443644
0.861396660161
0.865412798683
0.858819086564
0.863312358531
0.999999229995
1.00000159848
1.00000199566
0.867405655073
0.87338709336
0.865693212325
0.874114231088
0.999999183161
1.00000272432
1.00000362711
0.875279292299
0.878252732982
0.876015048404
0.877439640043
0.999998701073
1.00000095032
0.999999841831
0.878891804111
0.873719772887
0.876241348075
0.86900333839
0.999992594586
0.999997873321
0.999993205264
0.869876437097
0.860325476141
0.866906472053
0.862278356964
0.999989655361
0.999991768957
0.999991856772
0.860080622535
0.861570711995
0.862594346651
0.86239092528
0.999996459156
0.999995510379
0.999999306195
0.866036572669
0.860638366067
0.866054757374
0.859075671618
0.999991372713
0.999990908941
0.857720928473
0.862763477968
0.85884887468
0.999995474882
0.999994445062
0.99999824907
0.865206797964
0.873275467539
0.861691014122
0.869027739908
0.999997666283
0.999999461287
0.999998974436
0.875135619896
0.875537758642
0.870706680417
0.869120667349
0.999995204043
0.999998438263
0.99999761818
0.874926416647
0.868013117111
0.867057757283
0.862286711335
0.999990715766
0.999996521807
0.999992868518
0.866183517428
0.86187671749
0.86074718434
0.858807406883
0.999990484683
0.999993431654
0.999994875613
0.862347215464
0.861064153648
0.85995297449
0.860452032025
0.999996240732
0.999999936705
1.00000021888
0.864794512223
0.859006287013
0.864637665911
0.857760390015
0.999995138997
0.859952184
0.99998862055
0.858538929874
0.857717225941
0.999993513215
0.859158725083
0.860540066859
1
0.864796434932
0.857933170954
0.000416510905839
0.000520486863021
0.000419042910693
0.000567856913204
0.0379667739743
0.0379749782199
0.000392608506778
0.000264784808413
0.000388021277781
0.000325161928328
0.0457338832777
0.0422169299751
0.0453850846055
0.000412111331462
0.000633180503907
0.000466875353801
0.000664381522809
0.0495576346926
0.0473465483892
0.0484197320362
0.000867286328296
0.00102035820522
0.000791595389099
0.000856569635899
0.0533174231238
0.051108923373
0.0528653542916
0.00124178792963
0.000494426719111
0.000713162743013
0.000380798147183
0.055502585402
0.0549410169469
0.0549754290308
7.76265291342e-05
3.44036838058e-05
0.000193320879992
8.96161353979e-05
0.0556208600592
0.0547759028724
0.0555253030002
1.36677884774e-05
1.87972892379e-05
1.83345199426e-05
1.95565063628e-05
0.0575166708951
0.0560689094514
0.0572868258042
4.68549867599e-05
0.000351230771106
2.61768379482e-05
0.000303516392365
0.0599403404332
0.0582558639194
0.0587919614359
0.000479338188928
0.000483553987557
0.000430591705058
0.000435846217956
0.0594698271124
0.0577635572163
0.0610362186727
0.000535831770663
0.00128992105293
0.000470683065099
0.000743865104498
0.0299307535371
0.0278160436983
0.029932429548
0.00027064974087
0.000543216802707
0.00012398897918
0.000438208185363
0.0382850959206
0.0340977115353
0.0386336093902
0.00043886957902
0.000466358299616
0.000442018070879
0.000526441467788
0.0450094883934
0.0423411752958
0.0446691593454
0.000695895906937
0.000794670018351
0.000730887382723
0.000792910364495
0.0477130323138
0.0456223044156
0.0475073082186
0.000612226460999
0.000533319762007
0.000565937763248
0.00045987938895
0.0533085443447
0.0504575442969
0.0531466815125
0.000283562306752
0.000144274056795
0.000223471765884
0.000108052708887
0.0549409472426
0.0544753554874
0.0548935453991
0.000283032396857
0.000265162883135
0.000180775152202
0.000196135721225
0.0555448177471
0.0543148104911
0.0552856585969
0.000114471918571
4.50160184325e-05
0.000291132213893
0.000195591014542
0.056967752996
0.0557585945707
0.0566755727915
4.90579529008e-05
0.000296331044103
0.000225842285463
0.000353097737326
0.0578560920974
0.0568601824883
0.0569410157175
0.000388091575633
0.000378271699694
0.000369142816185
0.000333810054503
0.0603742781954
0.0557964878503
0.0596962744634
0.000325212099734
0.000564580101697
0.000238281299126
0.000595299839696
0.0299409803824
0.0275842759876
0.0303731216728
5.81837855829e-05
0.000335610614967
2.69568217327e-05
0.000201171381947
0.0393216616212
0.0353663101266
0.0402927229794
0.000384319355289
0.000527129568302
0.000375993992015
0.000567206409114
0.0446559809255
0.0435914880492
0.0449951233873
0.000633896271234
0.000668161212056
0.000674317069968
0.000671619111582
0.0475462555678
0.0457357787732
0.0476391782331
0.00053132237714
0.000410217241481
0.000507002543908
0.000408458474736
0.0525687802817
0.0493588382589
0.0515385158845
0.000185029184874
7.97245538468e-05
0.000204569611305
9.50190455375e-05
0.0545130689921
0.0525490180373
0.053482754984
5.92611475637e-05
4.30001563245e-05
6.9955581475e-05
4.70690641738e-05
0.0543543482714
0.0531295188563
0.0536836165956
0.000175189781456
0.000367502867777
0.000147308520876
0.000449032833422
0.0563844394908
0.0551798857887
0.0563586467941
0.000330055386891
0.000426889331048
0.000396366437297
0.000485928959848
0.056685157615
0.0567072997809
0.0566397776137
0.000398829771828
0.000327954566861
0.000430762154236
0.000321898303853
0.0597144935426
0.0559747350178
0.0596709269456
0.000207992379938
0.000472854347776
0.000229431961429
0.000453144038047
0.0415735381216
0.0428681276389
0.000393292420164
0.000600079612273
0.000621563031688
0.0459301660955
0.045885058275
0.0472560690841
0.000666835834377
0.000630342623773
0.000677700314612
0.000650488368389
0.0481649557016
0.0482564438534
0.0495379849963
0.000473118747426
0.00038507865351
0.000516179724831
0.000446221890381
0.0511578138035
0.0509791498788
0.0518141993064
0.000219723526758
0.000109845099911
0.000283887146837
0.000149344165953
0.0526440244866
0.0524294212268
0.0528571210897
8.09938661566e-05
5.36424318693e-05
0.000118125190579
0.000135423805877
0.0534151593475
0.0531404633962
0.0538535328313
0.000233518867313
0.000579410532146
0.000408036857631
0.000761919440183
0.0564131511621
0.0555720200992
0.0566413494284
0.000435423041107
0.00049759633491
0.000482359560099
0.000509220643846
0.0564454090627
0.0566361955524
0.0565393707883
0.000433297350145
0.000326542750983
0.000440101977807
0.000373488842423
0.0595556873659
0.0558789268793
0.0586881833592
0.000256810892747
0.000407506472641
0.000355115277327
0.000454728392027
0.0511266791029
0.0530805490505
0.000792139116819
0.00073282646154
0.00103938645329
0.00102076411014
0.0531760745972
0.0538952251826
0.0547521368568
0.000577111381548
0.000405011749985
0.000907341960849
0.000827654959972
0.0538221132071
0.054198089011
0.0544497632257
0.000412912571967
0.000495301239019
0.00105590580057
0.00117627336927
0.054980929003
0.0552283939207
0.0565712389948
0.000939149691702
0.000719328956261
0.000958571062252
0.000670955004879
0.0573668717186
0.0578774189685
0.0583217862827
0.000475423209148
0.000483022789109
0.000519270951806
0.000512494752855
0.056733454183
0.0573610238395
0.0569253359153
0.000430619850822
0.000378143879231
0.000446532324699
0.000390566795392
0.0576707713812
0.055551237718
0.0567170769032
0.000425541523308
0.000664766102041
0.000475332485828
0.00110196946337
0.0582699676455
0.000505744964419
0.0590878456402
0.000573491181511
0.000562784257068
0.000591911186086
0.000576111645466
0.0572268693834
0.000470321777299
0.000411886271363
0.000476365342155
0.000425396500829
0.0562335637088
0.00055117839626
0.00144549172972
0.000614248652103
0.00161377900894
0.9999386739
0.999899274792
0.905719546621
0.904435153807
0.999918455757
0.90757277392
0.99994966121
0.999921630937
0.999798417772
0.904558005995
0.90914302107
0.999873846743
0.999867445796
0.908422421022
0.999629569176
0.99979180765
0.888047706744
0.897519218477
0.999813929724
0.8883066509
0.999581999255
0.99938799866
0.999046001203
0.875922162519
0.864784367363
0.999078206201
0.876658702155
0.999334264272
0.99955944063
0.999717417544
0.897480266558
0.88711030736
0.99975832363
0.999513463152
0.888234618773
0.999332669819
0.999021190543
0.865693995244
0.875829298216
0.999063131022
0.999272762305
0.877075530034
0.998467607317
0.998720387129
0.84435557744
0.854536865402
0.998732604926
0.845506499618
0.998411625374
0.998129032219
0.998061189193
0.845136928211
0.848113242101
0.998147595445
0.84667699011
0.998053958978
0.998587851646
0.998779951965
0.856170091601
0.849641060713
0.99878997947
0.998630233504
0.847520553249
0.998281831306
0.998332736258
0.851012912282
0.851323279854
0.998276016811
0.998345541704
0.849344039061
0.998354848729
0.998134016982
0.852920151266
0.850417250786
0.998213582454
0.854681877545
0.998276658219
0.998522970296
0.99878198397
0.858296056669
0.865144513795
0.998795682875
0.859875439646
0.998506029847
0.998382937918
0.998354014334
0.852743257763
0.857010194723
0.998303252048
0.99842110427
0.855877241802
0.998552572837
0.998747072358
0.865700934617
0.860907999607
0.998812834049
0.998538624271
0.860473789822
0.998979492974
0.998945025592
0.867172962296
0.86734790418
0.998961130045
0.868490456919
0.998932749004
0.998971721
0.998917692368
0.86923958079
0.872295273268
0.998967146452
0.870057662658
0.998916928244
0.999026353947
0.998968533087
0.867656805674
0.868852466014
0.99898216687
0.999055302672
0.868608992134
0.99905103814
0.999088024643
0.872227098456
0.870510734328
0.999082027069
0.999069940898
0.870049476747
0.998931659659
0.998916400333
0.874177873791
0.873819331494
0.998968219938
0.874156738425
0.99887011203
0.998805592939
0.998486531457
0.874860222044
0.875396868695
0.998562148626
0.874341809103
0.998700768626
0.999078886899
0.999099447741
0.874002601633
0.874091670861
0.999101204544
0.999083552082
0.873996126336
0.998974067146
0.998753906326
0.874341797982
0.873768807555
0.998739627
0.998982531694
0.874000904447
0.998398976982
0.998441571255
0.877044127332
0.876264023201
0.998433396075
0.875990060706
0.998447555285
0.998383395715
0.998414369153
0.874125514951
0.868861125539
0.998353501692
0.873366460937
0.998444819511
0.998353928293
0.998486120627
0.875319666657
0.874169637569
0.99848542538
0.99832315859
0.875613635641
0.998295640672
0.998047376859
0.868670255722
0.87191085748
0.998208104393
0.998195206253
0.873045165936
0.998392062436
0.998424871038
0.860422653782
0.864563438148
0.998355866999
0.860919269035
0.998498453077
0.998514095724
0.998674144771
0.860293802147
0.860666514526
0.998601232684
0.860323965639
0.998627865188
0.998144811606
0.997902249816
0.864532377131
0.860894571
0.998126805503
0.997911662805
0.861045671816
0.998204994221
0.998026198506
0.857655742503
0.858123555859
0.998222462149
0.997962327473
0.858379776096
0.99829103913
0.998652058027
0.86422527298
0.866165769853
0.99857545676
0.863552937075
0.998371299918
0.997161944504
0.997538966154
0.836317768496
0.85136061787
0.836575525156
0.997566128405
0.997085174827
0.997705030984
0.99795725127
0.862475268671
0.859971002577
0.998122794468
0.997593129544
0.860106363469
0.996498880143
0.997095524903
0.853937683477
0.835208157619
0.996489728417
0.833671431512
0.997098121723
0.999795030761
0.999759868854
0.934650410577
0.937971998973
0.999792183083
0.935563603385
0.999756867491
0.999788675315
0.999810931337
0.93155603404
0.929676617749
0.99982085797
0.999796104077
0.933045961635
0.99975590252
0.999766271896
0.938739811491
0.937795567154
0.999777322603
0.93644658047
0.999740549591
0.999770702103
0.999764025052
0.930834863299
0.935480196697
0.999763172243
0.999776443914
0.934004643606
0.999681493096
0.999777696067
0.916728920085
0.924499782706
0.999715877178
0.999761164705
0.918728286333
0.999598366729
0.999544088142
0.909608607251
0.90358092708
0.999638832307
0.999470797328
0.911739893774
0.999618871273
0.999727454984
0.925844144048
0.921917507187
0.999708990731
0.999658576681
0.920200626371
0.999499484808
0.999399929963
0.903696514036
0.913060438896
0.999367614582
0.999558173473
0.912590173752
0.999113860638
0.999438296578
0.885945349884
0.893592182854
0.999229915001
0.999305437889
0.883822980129
0.998926861929
0.998759895938
0.875792948103
0.866314261291
0.998989485793
0.9987121462
0.874881114493
0.999044609268
0.999244184474
0.893231442883
0.881559301643
0.99921446583
0.999050786643
0.883082084991
0.998886896149
0.998712697199
0.866082231447
0.872277784905
0.99871691468
0.998875131086
0.874404334826
0.998471587053
0.998550843054
0.852500193274
0.859711920028
0.998479926494
0.99853479608
0.853544167091
0.998375680214
0.998305261146
0.853980915069
0.85664863732
0.998353319455
0.998328149419
0.855387804544
0.998555909954
0.99857835988
0.860594337405
0.856707966553
0.998570656481
0.998579093258
0.855422926553
0.998502950658
0.998580222956
0.858388771033
0.857675323721
0.998518942408
0.998560149994
0.856803567837
0.998323002607
0.998296994008
0.857634426264
0.857332885657
0.998316065873
0.998309328795
0.858564616996
0.9983715104
0.998562227907
0.860672340924
0.865269136508
0.998388198282
0.998481721568
0.86100343155
0.998508459784
0.998615493923
0.859205084046
0.862076561406
0.998527634283
0.998610313764
0.860272209616
0.998500113458
0.99854757239
0.865903927143
0.86388952649
0.998523502965
0.998553276279
0.862229441054
0.99873211634
0.998760336895
0.868572488297
0.867639006963
0.998843259967
0.998632353023
0.868929159954
0.998766726896
0.998881165148
0.870386976255
0.872565814194
0.998863257753
0.998784323934
0.870393533568
0.998653103495
0.998577592123
0.868089488562
0.870668246844
0.998595022267
0.998632374451
0.869125129893
0.99866175015
0.998643106974
0.872269106986
0.871698194057
0.998664211824
0.998636441705
0.870325451524
0.998812639542
0.998891576594
0.874033000566
0.874489665032
0.998883193385
0.998820104121
0.874478069689
0.998776905042
0.99865804716
0.873580005048
0.873724649546
0.998811537495
0.998693391035
0.874128442573
0.99873280584
0.998679889731
0.874256771412
0.875509941206
0.99869358203
0.998766000005
0.874748966058
0.998733291368
0.998805901592
0.873922618641
0.875430767941
0.998724460624
0.998792188571
0.874416574798
0.998341339873