/*--------------------------------*- C++ -*----------------------------------*\
| =========                 |                                                 |
| \\      /  F ield         | OpenFOAM: The Open Source CFD Toolbox           |
|  \\    /   O peration     | Version:  v1906                                 |
|   \\  /    A nd           | Web:      www.OpenFOAM.com                      |
|    \\/     M anipulation  |                                                 |
\*---------------------------------------------------------------------------*/
FoamFile
{
    version     2.0;
    format      ascii;
    class       volVectorField;
    location    "8";
    object      force.turbine;
}
// * * * * * * * * * * * * * * * * * * * * * * * * * * * * * * * * * * * * * //

dimensions      [1 -2 -2 0 0 0 0];


internalField   nonuniform List<vector> 
28582
(
(0 0 0)
(0 0 0)
(0 0 0)
(0 0 0)
(0 0 0)
(0 0 0)
(0 0 0)
(0 0 0)
(0 0 0)
(0 0 0)
(0 0 0)
(0 0 0)
(0 0 0)
(0 0 0)
(0 0 0)
(0 0 0)
(0 0 0)
(0 0 0)
(0 0 0)
(0 0 0)
(0 0 0)
(0 0 0)
(0 0 0)
(0 0 0)
(0 0 0)
(0 0 0)
(0 0 0)
(0 0 0)
(0 0 0)
(0 0 0)
(0 0 0)
(0 0 0)
(0 0 0)
(0 0 0)
(0 0 0)
(0 0 0)
(0 0 0)
(0 0 0)
(0 0 0)
(0 0 0)
(0 0 0)
(0 0 0)
(0 0 0)
(0 0 0)
(0 0 0)
(0 0 0)
(0 0 0)
(0 0 0)
(0 0 0)
(0 0 0)
(0 0 0)
(0 0 0)
(0 0 0)
(0 0 0)
(0 0 0)
(0 0 0)
(0 0 0)
(0 0 0)
(0 0 0)
(0 0 0)
(0 0 0)
(0 0 0)
(0 0 0)
(0 0 0)
(0 0 0)
(0 0 0)
(0 0 0)
(0 0 0)
(0 0 0)
(0 0 0)
(0 0 0)
(0 0 0)
(0 0 0)
(0 0 0)
(0 0 0)
(0 0 0)
(0 0 0)
(0 0 0)
(0 0 0)
(0 0 0)
(0 0 0)
(0 0 0)
(0 0 0)
(0 0 0)
(0 0 0)
(0 0 0)
(0 0 0)
(0 0 0)
(0 0 0)
(0 0 0)
(0 0 0)
(0 0 0)
(0 0 0)
(0 0 0)
(0 0 0)
(0 0 0)
(0 0 0)
(0 0 0)
(0 0 0)
(0 0 0)
(0 0 0)
(0 0 0)
(0 0 0)
(0 0 0)
(0 0 0)
(0 0 0)
(0 0 0)
(0 0 0)
(0 0 0)
(0 0 0)
(0 0 0)
(0 0 0)
(0 0 0)
(0 0 0)
(0 0 0)
(0 0 0)
(0 0 0)
(0 0 0)
(0 0 0)
(0 0 0)
(0 0 0)
(0 0 0)
(0 0 0)
(0 0 0)
(0 0 0)
(0 0 0)
(0 0 0)
(0 0 0)
(0 0 0)
(0 0 0)
(0 0 0)
(0 0 0)
(0 0 0)
(0 0 0)
(0 0 0)
(0 0 0)
(0 0 0)
(0 0 0)
(0 0 0)
(0 0 0)
(0 0 0)
(0 0 0)
(0 0 0)
(0 0 0)
(0 0 0)
(0 0 0)
(0 0 0)
(0 0 0)
(0 0 0)
(0 0 0)
(0 0 0)
(0 0 0)
(0 0 0)
(0 0 0)
(0 0 0)
(0 0 0)
(0 0 0)
(0 0 0)
(0 0 0)
(0 0 0)
(0 0 0)
(0 0 0)
(0 0 0)
(0 0 0)
(0 0 0)
(0 0 0)
(0 0 0)
(0 0 0)
(0 0 0)
(0 0 0)
(0 0 0)
(0 0 0)
(0 0 0)
(0 0 0)
(0 0 0)
(0 0 0)
(0 0 0)
(0 0 0)
(0 0 0)
(0 0 0)
(0 0 0)
(0 0 0)
(0 0 0)
(0 0 0)
(0 0 0)
(0 0 0)
(0 0 0)
(0 0 0)
(0 0 0)
(0 0 0)
(0 0 0)
(0 0 0)
(0 0 0)
(0 0 0)
(0 0 0)
(0 0 0)
(0 0 0)
(0 0 0)
(0 0 0)
(0 0 0)
(0 0 0)
(0 0 0)
(0 0 0)
(0 0 0)
(0 0 0)
(0 0 0)
(0 0 0)
(0 0 0)
(0 0 0)
(0 0 0)
(0 0 0)
(0 0 0)
(0 0 0)
(0 0 0)
(0 0 0)
(0 0 0)
(0 0 0)
(-0.00186419692587 3.5310874011e-05 0)
(0 0 0)
(0 0 0)
(0 0 0)
(0 0 0)
(-2.42047604258e-05 3.27468992471e-07 0)
(0 0 0)
(-2.39532729702e-06 3.60142663464e-08 0)
(0 0 0)
(0 0 0)
(0 0 0)
(0 0 0)
(0 0 0)
(0 0 0)
(0 0 0)
(0 0 0)
(0 0 0)
(0 0 0)
(0 0 0)
(0 0 0)
(-0.0158831471302 0.000450491072128 0)
(0 0 0)
(0 0 0)
(0 0 0)
(-0.0290669010956 0.000631509172865 0)
(0 0 0)
(0 0 0)
(-0.139438168602 -0.0077139956375 0.0224970128895)
(-1.23752437264 -0.0856660771956 0.236135129782)
(-0.078970608773 0.0017157200096 0)
(-0.759043514008 0.0164556350506 0)
(-0.00585979551104 7.07946581232e-05 0)
(-0.0788650884799 0.00171342746962 0)
(0 0 0)
(0 0 0)
(0 0 0)
(0 0 0)
(0 0 0)
(-0.0158831965186 0.000450492472924 0)
(0 0 0)
(0 0 0)
(0 0 0)
(-0.0290499958601 0.000631141888742 0)
(0 0 0)
(0 0 0)
(0 0 0)
(0 0 0)
(0 0 0)
(0 0 0)
(0 0 0)
(0 0 0)
(-1.4436245432e-05 1.86363604542e-07 0)
(0 0 0)
(-8.7598906328e-06 1.13085137089e-07 0)
(-0.000125289824051 2.07376862322e-06 0)
(-0.000642742229887 1.06385229547e-05 0)
(-7.62040547316e-05 1.26131215253e-06 0)
(-0.000383924761543 6.35463518442e-06 0)
(0 0 0)
(0 0 0)
(-0.000195543697412 2.43323740465e-06 0)
(0 0 0)
(0 0 0)
(0 0 0)
(0 0 0)
(0 0 0)
(0 0 0)
(-0.00837844105934 0.000158701086 0)
(-0.000373729622797 6.09277684451e-06 0)
(-0.00181228458469 3.43275711669e-05 0)
(-2.66506628765e-05 4.07630697057e-07 0)
(-0.000126387833738 2.09194262941e-06 0)
(-3.29930281141e-06 4.96057346131e-08 0)
(-2.62701962637e-05 4.01811334465e-07 0)
(0 0 0)
(0 0 0)
(0 0 0)
(0 0 0)
(0 0 0)
(-0.000189126187747 2.35338147081e-06 0)
(0 0 0)
(0 0 0)
(0 0 0)
(0 0 0)
(0 0 0)
(0 0 0)
(0 0 0)
(0 0 0)
(0 0 0)
(0 0 0)
(0 0 0)
(0 0 0)
(0 0 0)
(0 0 0)
(0 0 0)
(0 0 0)
(0 0 0)
(0 0 0)
(0 0 0)
(0 0 0)
(-0.0050554155338 5.98571255008e-05 0)
(0 0 0)
(0 0 0)
(0 0 0)
(0 0 0)
(0 0 0)
(-0.00456224452609 5.51183980552e-05 0)
(0 0 0)
(0 0 0)
(0 0 0)
(0 0 0)
(0 0 0)
(0 0 0)
(0 0 0)
(0 0 0)
(0 0 0)
(0 0 0)
(0 0 0)
(0 0 0)
(0 0 0)
(0 0 0)
(0 0 0)
(0 0 0)
(0 0 0)
(0 0 0)
(0 0 0)
(0 0 0)
(0 0 0)
(0 0 0)
(-0.0356151513785 0.00085829614863 0)
(-0.00856298524775 0.000149057085456 0)
(-0.0141183723719 0.000245760488456 0)
(-0.0100927539472 0.000184794815597 0)
(-0.0190635756508 0.000459416650692 0)
(0 0 0)
(0 0 0)
(0 0 0)
(0 0 0)
(0 0 0)
(0 0 0)
(0 0 0)
(0 0 0)
(0 0 0)
(0 0 0)
(-0.00517016919928 6.24629921322e-05 0)
(0 0 0)
(-0.00786048931012 0.000143922826234 0)
(0 0 0)
(0 0 0)
(-0.148387907564 0.00162553201493 0.00382100567215)
(-0.0998208537049 0.00238970872316 0)
(-0.192407961094 0.00417129601948 0)
(-0.0422849867886 0.000918686066451 0)
(-0.31249851166 8.49028131099e-05 0.0149565530066)
(-0.0518183753298 0.0012487806524 0)
(-0.101368262388 0.00220233272631 0)
(-0.422614979391 -0.00537155490466 0.0314274308543)
(-1.50226453507 -0.0239158485702 0.123379849263)
(-0.406898470757 0.00882132923062 0)
(-0.406229939316 0.00880683584623 0)
(-0.814053291047 -0.0130658571667 0.0667409859109)
(-0.217835226287 0.00472254478009 0)
(-0.784917073904 -0.010046610503 0.0587443911816)
(-0.0605457630296 0.00144946404175 0)
(-0.00890754644653 0.000163094078347 0)
(-0.0199943465993 0.000434398329611 0)
(-0.0199933906958 0.000434377561596 0)
(-0.0244790447319 0.000589925046008 0)
(-0.0244799671706 0.00058994727603 0)
(-0.047922325856 0.00104116322079 0)
(-0.151603245041 0.00140022303977 0.00441802231126)
(-0.0998248234544 0.00238980375886 0)
(-0.192065740936 0.00416387687958 0)
(-0.0422823915369 0.000918629681863 0)
(-0.0518218292716 0.00124886388959 0)
(-0.101331364728 0.00220153108561 0)
(-0.302842687637 0.00102805845248 0.0124589325636)
(0 0 0)
(0 0 0)
(0 0 0)
(0 0 0)
(0 0 0)
(0 0 0)
(0 0 0)
(0 0 0)
(0 0 0)
(0 0 0)
(0 0 0)
(0 0 0)
(0 0 0)
(0 0 0)
(0 0 0)
(0 0 0)
(0 0 0)
(0 0 0)
(0 0 0)
(0 0 0)
(0 0 0)
(0 0 0)
(0 0 0)
(-0.00516602966295 6.241298065e-05 0)
(0 0 0)
(-0.00786089391925 0.000143930234486 0)
(0 0 0)
(0 0 0)
(0 0 0)
(-0.0356190425834 0.0008583899235 0)
(-0.0141112855715 0.000245637127527 0)
(-0.00855554279043 0.000148927533557 0)
(-0.0190655445517 0.0004594640996 0)
(0 0 0)
(-0.0100938643885 0.000184815147391 0)
(0 0 0)
(0 0 0)
(0 0 0)
(0 0 0)
(0 0 0)
(0 0 0)
(0 0 0)
(0 0 0)
(0 0 0)
(0 0 0)
(0 0 0)
(0 0 0)
(0 0 0)
(0 0 0)
(0 0 0)
(0 0 0)
(0 0 0)
(0 0 0)
(0 0 0)
(0 0 0)
(0 0 0)
(0 0 0)
(0 0 0)
(0 0 0)
(0 0 0)
(0 0 0)
(0 0 0)
(0 0 0)
(0 0 0)
(0 0 0)
(0 0 0)
(0 0 0)
(0 0 0)
(0 0 0)
(0 0 0)
(0 0 0)
(-0.0150476106115 0.000283159208215 0)
(0 0 0)
(0 0 0)
(0 0 0)
(0 0 0)
(0 0 0)
(0 0 0)
(0 0 0)
(-0.00335768552703 6.31834249184e-05 0)
(0 0 0)
(0 0 0)
(0 0 0)
(0 0 0)
(0 0 0)
(0 0 0)
(0 0 0)
(0 0 0)
(0 0 0)
(0 0 0)
(0 0 0)
(0 0 0)
(0 0 0)
(0 0 0)
(0 0 0)
(0 0 0)
(0 0 0)
(0 0 0)
(0 0 0)
(0 0 0)
(0 0 0)
(0 0 0)
(0 0 0)
(0 0 0)
(0 0 0)
(0 0 0)
(0 0 0)
(-0.321915465405 0.00827904448278 0)
(-0.00772590192727 0.000145382567968 0)
(0 0 0)
(0 0 0)
(0 0 0)
(0 0 0)
(0 0 0)
(0 0 0)
(-0.0706867697514 0.00183674094832 0)
(0 0 0)
(0 0 0)
(0 0 0)
(0 0 0)
(0 0 0)
(0 0 0)
(0 0 0)
(0 0 0)
(0 0 0)
(0 0 0)
(0 0 0)
(0 0 0)
(0 0 0)
(0 0 0)
(0 0 0)
(0 0 0)
(0 0 0)
(0 0 0)
(0 0 0)
(0 0 0)
(0 0 0)
(0 0 0)
(0 0 0)
(0 0 0)
(0 0 0)
(0 0 0)
(0 0 0)
(-1.51070344258 0.0496897297222 0)
(-0.0431743517705 0.00143297753336 0)
(0 0 0)
(0 0 0)
(0 0 0)
(0 0 0)
(0 0 0)
(0 0 0)
(-0.331361386333 0.0107734429519 0)
(-0.00656105162949 0.000240275032267 0)
(0 0 0)
(0 0 0)
(0 0 0)
(0 0 0)
(0 0 0)
(0 0 0)
(0 0 0)
(0 0 0)
(0 0 0)
(0 0 0)
(0 0 0)
(0 0 0)
(0 0 0)
(0 0 0)
(0 0 0)
(0 0 0)
(0 0 0)
(0 0 0)
(0 0 0)
(0 0 0)
(0 0 0)
(0 0 0)
(0 0 0)
(0 0 0)
(0 0 0)
(0 0 0)
(0 0 0)
(0 0 0)
(0 0 0)
(0 0 0)
(0 0 0)
(0 0 0)
(0 0 0)
(-2.54060053017 0.0703087462976 0)
(-0.076719999809 0.00212315432453 0)
(0 0 0)
(0 0 0)
(0 0 0)
(0 0 0)
(0 0 0)
(0 0 0)
(-2.54060341851 0.0703088262299 0)
(-0.566882569654 0.0156879455456 0)
(-0.0158831494497 0.000450491137917 0)
(0 0 0)
(0 0 0)
(0 0 0)
(0 0 0)
(0 0 0)
(0 0 0)
(-0.046532761311 0.00128775069937 0)
(-0.0767195854865 0.00212314285854 0)
(-0.0158831752852 0.000450491870685 0)
(0 0 0)
(0 0 0)
(0 0 0)
(0 0 0)
(0 0 0)
(0 0 0)
(0 0 0)
(0 0 0)
(0 0 0)
(0 0 0)
(0 0 0)
(0 0 0)
(0 0 0)
(0 0 0)
(0 0 0)
(0 0 0)
(0 0 0)
(0 0 0)
(0 0 0)
(0 0 0)
(0 0 0)
(0 0 0)
(0 0 0)
(0 0 0)
(0 0 0)
(0 0 0)
(-0.0572240725958 0.00108387392443 0)
(-0.00195644678053 3.70582339331e-05 0)
(0 0 0)
(0 0 0)
(0 0 0)
(0 0 0)
(0 0 0)
(0 0 0)
(-0.0231692513452 0.000438845860533 0)
(-0.0459431813564 0.000870203989659 0)
(-0.0126407752102 0.000239436518027 0)
(-0.000328856615337 4.09210947626e-06 0)
(0 0 0)
(0 0 0)
(0 0 0)
(0 0 0)
(0 0 0)
(0 0 0)
(-0.000643760164312 1.04949856348e-05 0)
(-0.00140534672455 2.66195166634e-05 0)
(-0.000304387077161 3.78762410367e-06 0)
(0 0 0)
(0 0 0)
(0 0 0)
(0 0 0)
(0 0 0)
(0 0 0)
(0 0 0)
(0 0 0)
(0 0 0)
(0 0 0)
(0 0 0)
(0 0 0)
(0 0 0)
(0 0 0)
(0 0 0)
(0 0 0)
(0 0 0)
(0 0 0)
(0 0 0)
(0 0 0)
(0 0 0)
(0 0 0)
(0 0 0)
(0 0 0)
(0 0 0)
(0 0 0)
(-0.000189543840857 2.76541698032e-06 0)
(-0.000185878444862 2.71193938758e-06 0)
(-2.43348738082e-05 3.29229311412e-07 0)
(0 0 0)
(0 0 0)
(0 0 0)
(0 0 0)
(0 0 0)
(0 0 0)
(0 0 0)
(-2.45879601226e-05 3.32653345318e-07 0)
(-2.43974794012e-05 3.30076309693e-07 0)
(-2.52591908249e-06 3.79777422147e-08 0)
(0 0 0)
(0 0 0)
(0 0 0)
(0 0 0)
(0 0 0)
(0 0 0)
(0 0 0)
(0 0 0)
(0 0 0)
(0 0 0)
(0 0 0)
(0 0 0)
(0 0 0)
(0 0 0)
(0 0 0)
(0 0 0)
(0 0 0)
(0 0 0)
(0 0 0)
(0 0 0)
(0 0 0)
(0 0 0)
(0 0 0)
(0 0 0)
(0 0 0)
(0 0 0)
(0 0 0)
(0 0 0)
(0 0 0)
(0 0 0)
(0 0 0)
(0 0 0)
(0 0 0)
(0 0 0)
(0 0 0)
(0 0 0)
(-0.00335763380638 6.31824516622e-05 0)
(-0.00912713312361 0.000171750310085 0)
(-0.00203653858652 3.83226725191e-05 0)
(-0.0867216292941 0.00194940835049 0)
(-0.0177769817015 0.000334519292998 0)
(-0.0525994479767 0.00118237865169 0)
(-0.0107822704989 0.000202895945147 0)
(0 0 0)
(0 0 0)
(0 0 0)
(-0.0024058095875 4.52714491027e-05 0)
(0 0 0)
(0 0 0)
(0 0 0)
(0 0 0)
(0 0 0)
(0 0 0)
(-0.0177770617168 0.00033452079869 0)
(-0.00396661479451 7.46419836018e-05 0)
(-0.00396662997062 7.46422691792e-05 0)
(0 0 0)
(0 0 0)
(0 0 0)
(0 0 0)
(0 0 0)
(0 0 0)
(0 0 0)
(0 0 0)
(-0.0706914140251 0.00183686162617 0)
(-0.195249707658 0.00502144565473 0)
(-0.0428758558383 0.00111409589644 0)
(-0.801524902216 0.023726899393 0)
(-0.176876781054 0.0052647554918 0)
(-0.486141260621 0.0143908501778 0)
(-0.107280166403 0.00319320513336 0)
(0 0 0)
(-0.00468593025727 8.8177740351e-05 0)
(0 0 0)
(-0.0227973004583 0.000701995395648 0)
(0 0 0)
(-0.0121920307961 0.000367421149686 0)
(0 0 0)
(-0.0149332456576 0.000379881335434 0)
(-0.0149336556453 0.000379891764958 0)
(-0.00284212432223 5.34818246904e-05 0)
(-0.176857289871 0.00526417533474 0)
(-0.0375846694699 0.00115734163187 0)
(-0.0375845737595 0.00115733868467 0)
(-0.00739466136299 0.00022284679435 0)
(0 0 0)
(0 0 0)
(0 0 0)
(-0.00335764961109 6.31827490682e-05 0)
(0 0 0)
(0 0 0)
(0 0 0)
(-0.331386558859 0.0107742613779 0)
(-0.900756478243 0.0292859968968 0)
(-0.200995113125 0.00653488751002 0)
(-2.21367482066 0.0709843683276 0)
(-0.488238732949 0.0155256598974 0)
(-1.32715220737 0.0422025382526 0)
(-0.296132011076 0.00941679669887 0)
(0 0 0)
(-0.0261864784086 0.00086914183302 0)
(0 0 0)
(-0.0660760726958 0.00210117420598 0)
(0 0 0)
(-0.0400771722716 0.00127442684152 0)
(0 0 0)
(-0.0739406474744 0.0024040077699 0)
(-0.0739413474264 0.00240403052721 0)
(-0.014002059024 0.00050980822047 0)
(-0.48822624154 0.0155252626791 0)
(-0.108939665312 0.00346420732079 0)
(-0.108940310769 0.00346422784589 0)
(-0.0243079909543 0.00077297759247 0)
(0 0 0)
(0 0 0)
(0 0 0)
(-0.0133262145235 0.000447525082542 0)
(0 0 0)
(0 0 0)
(0 0 0)
(-7.09501136365 0.201495391142 0)
(-4.21427630584 0.117322824524 0)
(-4.19665014196 0.0909810068813 0)
(-1.98382975936 0.0430083096953 0)
(-0.566890691685 0.0156881703152 0)
(-1.54095239712 0.0426444180654 0)
(-0.343833183765 0.00951526215908 0)
(-2.52764828956 0.0547979885496 0)
(-0.256485928952 0.00556047020304 0)
(-1.19357886541 0.0258761162579 0)
(-0.121404569697 0.00263198256167 0)
(0 0 0)
(-0.0465327618732 0.00128775071493 0)
(0 0 0)
(-0.0917484766867 0.00199333270628 0)
(0 0 0)
(-0.0435260953955 0.000945650463763 0)
(0 0 0)
(0 0 0)
(0 0 0)
(0 0 0)
(0 0 0)
(0 0 0)
(0 0 0)
(0 0 0)
(0 0 0)
(0 0 0)
(0 0 0)
(0 0 0)
(0 0 0)
(0 0 0)
(0 0 0)
(0 0 0)
(0 0 0)
(0 0 0)
(0 0 0)
(0 0 0)
(0 0 0)
(0 0 0)
(0 0 0)
(0 0 0)
(0 0 0)
(0 0 0)
(0 0 0)
(0 0 0)
(0 0 0)
(0 0 0)
(0 0 0)
(0 0 0)
(0 0 0)
(0 0 0)
(0 0 0)
(0 0 0)
(0 0 0)
(0 0 0)
(0 0 0)
(0 0 0)
(0 0 0)
(0 0 0)
(0 0 0)
(-1.45486494917 -0.0796511183266 0.236134614934)
(-0.678097450108 0.00719292104802 0.0224969657023)
(-1.24801030848 0.0270561592278 0)
(-2.61432540482 0.056677099496 0)
(-0.131868125404 0.00285882654473 0)
(-0.276943996335 0.00600398955928 0)
(-1.54094871605 0.0426443161953 0)
(-0.56688456506 0.0156880007666 0)
(-0.343832769999 0.00951525070851 0)
(-2.60019093074 0.0563706720743 0)
(-1.20197050579 0.0260580422859 0)
(-0.27554500764 0.00597366027383 0)
(-0.126654322388 0.00274579423753 0)
(-0.126488557003 0.00350045265216 0)
(-0.126488465151 0.00350045011024 0)
(-0.02822325574 0.000781052237043 0)
(-0.722666329195 0.0156669982117 0)
(-0.0724911402827 0.00157494670276 0)
(-0.0746810141545 0.00162252402904 0)
(-0.00535468667895 6.46922255357e-05 0)
(0 0 0)
(0 0 0)
(0 0 0)
(-0.0264517527078 0.000574692307872 0)
(0 0 0)
(0 0 0)
(0 0 0)
(0 0 0)
(0 0 0)
(0 0 0)
(0 0 0)
(0 0 0)
(0 0 0)
(0 0 0)
(0 0 0)
(0 0 0)
(0 0 0)
(0 0 0)
(0 0 0)
(0 0 0)
(0 0 0)
(0 0 0)
(0 0 0)
(0 0 0)
(0 0 0)
(0 0 0)
(0 0 0)
(0 0 0)
(0 0 0)
(0 0 0)
(0 0 0)
(0 0 0)
(0 0 0)
(0 0 0)
(0 0 0)
(0 0 0)
(0 0 0)
(0 0 0)
(0 0 0)
(0 0 0)
(0 0 0)
(0 0 0)
(0 0 0)
(0 0 0)
(0 0 0)
(0 0 0)
(0 0 0)
(0 0 0)
(0 0 0)
(-0.0767196239169 0.00212314392207 0)
(0 0 0)
(0 0 0)
(-0.0478157479672 0.00103884770342 0)
(-0.100349433604 0.00218019759328 0)
(0 0 0)
(0 0 0)
(-0.0465327276596 0.0012877497681 0)
(0 0 0)
(0 0 0)
(-0.0998035477818 0.00216833764636 0)
(-0.0457933863775 0.000994909758657 0)
(0 0 0)
(0 0 0)
(0 0 0)
(0 0 0)
(0 0 0)
(-0.0274218903959 0.000595769575344 0)
(0 0 0)
(0 0 0)
(0 0 0)
(0 0 0)
(0 0 0)
(0 0 0)
(0 0 0)
(0 0 0)
(0 0 0)
(0 0 0)
(0 0 0)
(0 0 0)
(0 0 0)
(0 0 0)
(0 0 0)
(0 0 0)
(0 0 0)
(0 0 0)
(0 0 0)
(0 0 0)
(0 0 0)
(0 0 0)
(0 0 0)
(0 0 0)
(0 0 0)
(0 0 0)
(0 0 0)
(0 0 0)
(0 0 0)
(0 0 0)
(0 0 0)
(0 0 0)
(0 0 0)
(0 0 0)
(0 0 0)
(0 0 0)
(0 0 0)
(0 0 0)
(0 0 0)
(0 0 0)
(0 0 0)
(0 0 0)
(0 0 0)
(0 0 0)
(0 0 0)
(0 0 0)
(0 0 0)
(0 0 0)
(0 0 0)
(0 0 0)
(0 0 0)
(0 0 0)
(0 0 0)
(0 0 0)
(0 0 0)
(0 0 0)
(0 0 0)
(0 0 0)
(0 0 0)
(0 0 0)
(0 0 0)
(0 0 0)
(0 0 0)
(0 0 0)
(0 0 0)
(0 0 0)
(0 0 0)
(0 0 0)
(0 0 0)
(0 0 0)
(0 0 0)
(0 0 0)
(0 0 0)
(0 0 0)
(0 0 0)
(0 0 0)
(0 0 0)
(0 0 0)
(0 0 0)
(0 0 0)
(0 0 0)
(0 0 0)
(0 0 0)
(0 0 0)
(0 0 0)
(0 0 0)
(0 0 0)
(0 0 0)
(0 0 0)
(0 0 0)
(0 0 0)
(0 0 0)
(0 0 0)
(0 0 0)
(0 0 0)
(0 0 0)
(0 0 0)
(0 0 0)
(0 0 0)
(0 0 0)
(0 0 0)
(0 0 0)
(0 0 0)
(0 0 0)
(0 0 0)
(0 0 0)
(0 0 0)
(0 0 0)
(0 0 0)
(0 0 0)
(0 0 0)
(0 0 0)
(0 0 0)
(0 0 0)
(0 0 0)
(0 0 0)
(0 0 0)
(0 0 0)
(0 0 0)
(0 0 0)
(0 0 0)
(0 0 0)
(0 0 0)
(0 0 0)
(0 0 0)
(0 0 0)
(0 0 0)
(0 0 0)
(0 0 0)
(0 0 0)
(0 0 0)
(0 0 0)
(0 0 0)
(0 0 0)
(0 0 0)
(0 0 0)
(0 0 0)
(0 0 0)
(0 0 0)
(0 0 0)
(0 0 0)
(0 0 0)
(0 0 0)
(0 0 0)
(0 0 0)
(0 0 0)
(0 0 0)
(0 0 0)
(0 0 0)
(0 0 0)
(0 0 0)
(0 0 0)
(0 0 0)
(0 0 0)
(0 0 0)
(0 0 0)
(0 0 0)
(0 0 0)
(0 0 0)
(0 0 0)
(0 0 0)
(0 0 0)
(0 0 0)
(0 0 0)
(0 0 0)
(0 0 0)
(0 0 0)
(0 0 0)
(0 0 0)
(0 0 0)
(0 0 0)
(0 0 0)
(0 0 0)
(-0.00204797574293 3.39041689251e-05 0)
(-0.0036239634784 5.99945924038e-05 0)
(-0.00124262252111 2.05676048658e-05 0)
(-0.00226641447959 3.75204147977e-05 0)
(-0.139459300883 0.00264148098674 0)
(-0.0846041498555 0.00160247650625 0)
(-0.00331966276264 5.4956904381e-05 0)
(-0.00182898841966 3.02788412198e-05 0)
(-0.00200685646618 3.3223440694e-05 0)
(-0.00116055402981 1.92092258952e-05 0)
(-0.0136486785174 0.000258527820133 0)
(-0.0345113979118 0.00065367602471 0)
(-0.00821655974103 0.00015563479469 0)
(-0.000750013433831 1.24140514831e-05 0)
(-0.000193504613183 3.20284427172e-06 0)
(-0.000472517778025 7.8210066093e-06 0)
(-0.000119605363678 1.9796807302e-06 0)
(0 0 0)
(-0.00109467160708 1.78460293569e-05 0)
(0 0 0)
(-2.61072630115e-05 3.37029711947e-07 0)
(0 0 0)
(-1.51938216981e-05 1.96143477317e-07 0)
(0 0 0)
(0 0 0)
(0 0 0)
(0 0 0)
(0 0 0)
(0 0 0)
(0 0 0)
(0 0 0)
(0 0 0)
(0 0 0)
(0 0 0)
(0 0 0)
(0 0 0)
(0 0 0)
(0 0 0)
(0 0 0)
(0 0 0)
(0 0 0)
(0 0 0)
(0 0 0)
(0 0 0)
(0 0 0)
(0 0 0)
(0 0 0)
(0 0 0)
(0 0 0)
(0 0 0)
(0 0 0)
(0 0 0)
(0 0 0)
(0 0 0)
(0 0 0)
(0 0 0)
(0 0 0)
(0 0 0)
(0 0 0)
(0 0 0)
(0 0 0)
(0 0 0)
(0 0 0)
(0 0 0)
(0 0 0)
(0 0 0)
(-0.0407245320631 0.000771358213167 0)
(-0.00510457892003 9.66888962334e-05 0)
(-0.00903408828502 0.000171120094025 0)
(-0.000409413320642 6.77651600764e-06 0)
(-0.000819527452985 1.35646316909e-05 0)
(-8.08285636053e-05 1.33785596982e-06 0)
(-0.000170438053966 2.82105183877e-06 0)
(-0.0313717616221 0.000594208570678 0)
(-0.0102504997559 0.000194160874534 0)
(-0.00702067992639 0.000132982916618 0)
(-0.000764201044124 1.26488815763e-05 0)
(-0.000472351497878 7.81825437819e-06 0)
(-0.000170888789489 2.82851231044e-06 0)
(-0.000109707236847 1.81584918995e-06 0)
(-0.00299822880718 5.67912532186e-05 0)
(-0.002824356201 5.34978277195e-05 0)
(-0.000627184676595 1.02247615434e-05 0)
(-0.000200924274438 3.32565281442e-06 0)
(-4.62118859596e-05 7.06826069329e-07 0)
(-4.45717400883e-05 6.8173949614e-07 0)
(-5.84926386495e-06 8.79449530862e-08 0)
(0 0 0)
(0 0 0)
(0 0 0)
(0 0 0)
(0 0 0)
(0 0 0)
(0 0 0)
(0 0 0)
(0 0 0)
(0 0 0)
(0 0 0)
(0 0 0)
(0 0 0)
(0 0 0)
(0 0 0)
(0 0 0)
(0 0 0)
(0 0 0)
(0 0 0)
(0 0 0)
(0 0 0)
(0 0 0)
(0 0 0)
(0 0 0)
(0 0 0)
(0 0 0)
(0 0 0)
(0 0 0)
(0 0 0)
(0 0 0)
(0 0 0)
(0 0 0)
(0 0 0)
(0 0 0)
(0 0 0)
(0 0 0)
(0 0 0)
(0 0 0)
(0 0 0)
(0 0 0)
(0 0 0)
(0 0 0)
(0 0 0)
(0 0 0)
(0 0 0)
(0 0 0)
(0 0 0)
(0 0 0)
(0 0 0)
(-0.00122296884931 2.31649877532e-05 0)
(0 0 0)
(0 0 0)
(-8.98248910705e-06 1.1595875504e-07 0)
(-1.86833808265e-05 2.41191673573e-07 0)
(0 0 0)
(0 0 0)
(-0.000912979771759 1.48839740646e-05 0)
(0 0 0)
(0 0 0)
(-1.93635095976e-05 2.49971743844e-07 0)
(-1.29540355207e-05 1.67229129234e-07 0)
(0 0 0)
(0 0 0)
(0 0 0)
(0 0 0)
(0 0 0)
(0 0 0)
(0 0 0)
(0 0 0)
(0 0 0)
(0 0 0)
(0 0 0)
(0 0 0)
(0 0 0)
(0 0 0)
(0 0 0)
(0 0 0)
(0 0 0)
(0 0 0)
(0 0 0)
(0 0 0)
(0 0 0)
(0 0 0)
(0 0 0)
(0 0 0)
(0 0 0)
(0 0 0)
(0 0 0)
(0 0 0)
(0 0 0)
(0 0 0)
(0 0 0)
(0 0 0)
(0 0 0)
(0 0 0)
(0 0 0)
(0 0 0)
(0 0 0)
(0 0 0)
(0 0 0)
(0 0 0)
(0 0 0)
(0 0 0)
(0 0 0)
(0 0 0)
(0 0 0)
(0 0 0)
(0 0 0)
(0 0 0)
(0 0 0)
(0 0 0)
(0 0 0)
(0 0 0)
(0 0 0)
(0 0 0)
(0 0 0)
(0 0 0)
(0 0 0)
(0 0 0)
(0 0 0)
(0 0 0)
(0 0 0)
(0 0 0)
(0 0 0)
(0 0 0)
(0 0 0)
(0 0 0)
(0 0 0)
(0 0 0)
(0 0 0)
(0 0 0)
(0 0 0)
(0 0 0)
(0 0 0)
(0 0 0)
(0 0 0)
(0 0 0)
(0 0 0)
(0 0 0)
(0 0 0)
(0 0 0)
(0 0 0)
(0 0 0)
(0 0 0)
(0 0 0)
(0 0 0)
(0 0 0)
(0 0 0)
(0 0 0)
(0 0 0)
(0 0 0)
(0 0 0)
(0 0 0)
(0 0 0)
(0 0 0)
(0 0 0)
(0 0 0)
(0 0 0)
(0 0 0)
(0 0 0)
(0 0 0)
(0 0 0)
(0 0 0)
(0 0 0)
(0 0 0)
(0 0 0)
(0 0 0)
(0 0 0)
(0 0 0)
(0 0 0)
(0 0 0)
(0 0 0)
(0 0 0)
(0 0 0)
(0 0 0)
(0 0 0)
(0 0 0)
(0 0 0)
(0 0 0)
(0 0 0)
(0 0 0)
(0 0 0)
(0 0 0)
(0 0 0)
(0 0 0)
(0 0 0)
(0 0 0)
(0 0 0)
(0 0 0)
(0 0 0)
(0 0 0)
(0 0 0)
(0 0 0)
(0 0 0)
(0 0 0)
(0 0 0)
(0 0 0)
(0 0 0)
(0 0 0)
(0 0 0)
(0 0 0)
(0 0 0)
(0 0 0)
(0 0 0)
(0 0 0)
(0 0 0)
(0 0 0)
(0 0 0)
(0 0 0)
(0 0 0)
(0 0 0)
(0 0 0)
(0 0 0)
(0 0 0)
(0 0 0)
(0 0 0)
(0 0 0)
(0 0 0)
(0 0 0)
(0 0 0)
(0 0 0)
(0 0 0)
(0 0 0)
(0 0 0)
(0 0 0)
(0 0 0)
(0 0 0)
(0 0 0)
(0 0 0)
(0 0 0)
(0 0 0)
(0 0 0)
(0 0 0)
(0 0 0)
(0 0 0)
(0 0 0)
(0 0 0)
(0 0 0)
(0 0 0)
(0 0 0)
(0 0 0)
(0 0 0)
(0 0 0)
(0 0 0)
(0 0 0)
(-7.01596392322 0.168473518424 0)
(-5.45094734235 0.130495542064 0)
(-6.12183201101 0.13271786341 0)
(-3.70781914564 0.0803834267316 0)
(-4.81053633161 0.115164118599 0)
(-5.41353982342 0.117362488477 0)
(-7.95874024047 0.191375402118 0)
(-5.45106909473 0.130498456813 0)
(-2.57458574802 0.0616355179525 0)
(-2.8880442585 0.0626111697826 0)
(-2.90266694502 0.0629281813745 0)
(-3.7462824904 0.0896859084495 0)
(-3.74625853164 0.0896853348773 0)
(-4.22001167814 0.0914874718027 0)
(-1.56130173513 0.0373775242091 0)
(-3.30581170342 0.0791410489049 0)
(-1.33934295067 0.0290361993707 0)
(-2.23172834428 0.0483826111254 0)
(-2.91743307582 0.0698432743437 0)
(-1.1823102641 0.0256318193404 0)
(-1.76910253902 0.0423522702197 0)
(-0.737328671061 0.0176516298115 0)
(-0.348170334985 0.00833518904896 0)
(-0.624032101638 0.0135286638182 0)
(-0.226652836606 0.00491370559597 0)
(-0.307269137 0.00735601539952 0)
(-0.55116894181 0.0119490316303 0)
(-0.835457965303 0.0200008426438 0)
(-1.21585779547 0.0291076049956 0)
(-1.56143880631 0.0373808056897 0)
(-1.73799643477 0.0376787819433 0)
(-0.631993745719 0.0137012677691 0)
(-2.27197292451 0.0543909745806 0)
(-0.835607628043 0.020004425566 0)
(-0.920709577973 0.0199604640882 0)
(-0.574200387204 0.0137463428053 0)
(-0.16445994064 0.0039371668361 0)
(-0.1767028624 0.00383081834228 0)
(-0.294740676984 0.00638981155297 0)
(-0.239297837288 0.00572878419664 0)
(-0.394618135916 0.00944714823321 0)
(-0.429454667704 0.00931033485183 0)
(-0.0355700983076 0.000857210406306 0)
(-0.128043004103 0.00306534629276 0)
(-0.0294702590103 0.000640272550228 0)
(-0.0810732766279 0.00176140269292 0)
(-0.112998935482 0.00270519166895 0)
(-0.026042820379 0.000565807820466 0)
(-0.0403039442567 0.000971292239152 0)
(-0.00889217231877 0.000162812583414 0)
(0 0 0)
(-0.00766512248954 0.000133427862468 0)
(0 0 0)
(0 0 0)
(-0.00524801605039 6.3403492735e-05 0)
(-0.0100753942005 0.000184476964671 0)
(-0.0277053531929 0.000667676452902 0)
(-0.0604868361234 0.0014480533331 0)
(-0.0632604655764 0.00137440053068 0)
(-0.0127049226861 0.000221156371491 0)
(-0.088008709948 0.00210692629917 0)
(-0.0190423995635 0.00045890632423 0)
(-0.0203304251889 0.00044169999247 0)
(-0.00504746006905 5.97629312157e-05 0)
(0 0 0)
(0 0 0)
(0 0 0)
(0 0 0)
(0 0 0)
(-0.00410001841473 4.9534049682e-05 0)
(0 0 0)
(0 0 0)
(0 0 0)
(0 0 0)
(0 0 0)
(0 0 0)
(0 0 0)
(0 0 0)
(0 0 0)
(0 0 0)
(0 0 0)
(0 0 0)
(0 0 0)
(0 0 0)
(0 0 0)
(0 0 0)
(0 0 0)
(0 0 0)
(0 0 0)
(0 0 0)
(0 0 0)
(0 0 0)
(0 0 0)
(0 0 0)
(0 0 0)
(0 0 0)
(0 0 0)
(0 0 0)
(0 0 0)
(0 0 0)
(0 0 0)
(0 0 0)
(0 0 0)
(0 0 0)
(0 0 0)
(0 0 0)
(0 0 0)
(0 0 0)
(0 0 0)
(0 0 0)
(0 0 0)
(0 0 0)
(0 0 0)
(0 0 0)
(0 0 0)
(0 0 0)
(0 0 0)
(0 0 0)
(0 0 0)
(0 0 0)
(0 0 0)
(0 0 0)
(0 0 0)
(0 0 0)
(0 0 0)
(0 0 0)
(0 0 0)
(0 0 0)
(0 0 0)
(0 0 0)
(0 0 0)
(0 0 0)
(0 0 0)
(0 0 0)
(0 0 0)
(0 0 0)
(0 0 0)
(0 0 0)
(0 0 0)
(0 0 0)
(0 0 0)
(0 0 0)
(0 0 0)
(0 0 0)
(0 0 0)
(0 0 0)
(0 0 0)
(0 0 0)
(0 0 0)
(0 0 0)
(0 0 0)
(0 0 0)
(0 0 0)
(0 0 0)
(0 0 0)
(0 0 0)
(0 0 0)
(0 0 0)
(0 0 0)
(0 0 0)
(0 0 0)
(0 0 0)
(0 0 0)
(0 0 0)
(0 0 0)
(0 0 0)
(0 0 0)
(0 0 0)
(0 0 0)
(0 0 0)
(0 0 0)
(0 0 0)
(0 0 0)
(0 0 0)
(0 0 0)
(0 0 0)
(0 0 0)
(0 0 0)
(0 0 0)
(0 0 0)
(0 0 0)
(0 0 0)
(0 0 0)
(0 0 0)
(0 0 0)
(0 0 0)
(0 0 0)
(0 0 0)
(0 0 0)
(0 0 0)
(0 0 0)
(0 0 0)
(0 0 0)
(0 0 0)
(0 0 0)
(0 0 0)
(0 0 0)
(0 0 0)
(0 0 0)
(0 0 0)
(0 0 0)
(0 0 0)
(0 0 0)
(0 0 0)
(0 0 0)
(0 0 0)
(0 0 0)
(0 0 0)
(0 0 0)
(0 0 0)
(0 0 0)
(0 0 0)
(0 0 0)
(0 0 0)
(0 0 0)
(0 0 0)
(0 0 0)
(0 0 0)
(0 0 0)
(0 0 0)
(0 0 0)
(0 0 0)
(0 0 0)
(0 0 0)
(0 0 0)
(0 0 0)
(0 0 0)
(0 0 0)
(0 0 0)
(0 0 0)
(0 0 0)
(0 0 0)
(0 0 0)
(0 0 0)
(0 0 0)
(0 0 0)
(0 0 0)
(0 0 0)
(-1.36744069172 0.017246080761 0.0314304096364)
(-2.11668097626 -0.00920721602285 0.123380841529)
(-1.80989718211 0.0392375495717 0)
(-0.668187653801 0.0144859312719 0)
(-2.57918026402 0.0291896379467 0.066744266461)
(-0.969713664361 0.0210228450278 0)
(-1.11381542597 -0.00217398198596 0.0587468147937)
(-1.58177001931 0.0359405084916 0.00382131337763)
(-3.30587487256 0.0791425611724 0)
(-2.31626823897 0.0502153883359 0)
(-1.40205638585 0.0303957912559 0)
(-2.99050022523 0.064195543383 0.0149578734668)
(-1.76948109117 0.0423613327485 0)
(-1.24178986132 0.0269213034435 0)
(-0.597871792287 0.012083868285 0.00441804715299)
(-0.16458247378 0.00394010027638 0)
(-0.315887593262 0.00684826476454 0)
(-0.191402996936 0.00414950896364 0)
(-0.239468730584 0.00573287537784 0)
(-0.458492151533 0.00993985111519 0)
(-0.458186082624 0.00474696218476 0.0124589590565)
(-0.737610739153 0.0176583825146 0)
(-0.34842031748 0.0083411736236 0)
(-0.663108765852 0.0143758238472 0)
(-0.24516017605 0.00531493427132 0)
(-0.835816179273 0.0200094182772 0)
(-0.307483666599 0.00736115123272 0)
(-0.587182045837 0.0127297754032 0)
(-1.56138275284 0.0373794637709 0)
(-3.30576509021 0.0791399329858 0)
(-2.27944097908 0.0494169941235 0)
(-1.39425754843 0.0302267168616 0)
(-2.91714724742 0.0698364316189 0)
(-1.76941931594 0.0423598538511 0)
(-1.22275493329 0.0265086369453 0)
(-1.2159050975 0.0291087374049 0)
(-1.56116835774 0.0373743311577 0)
(-1.76145711222 0.0381873961916 0)
(-0.643714474568 0.0139553665565 0)
(-2.27170164983 0.0543844802717 0)
(-0.835571994538 0.0200035725008 0)
(-0.945046768728 0.0204880806501 0)
(-0.737498833621 0.0176557034989 0)
(-0.348407585484 0.00834086881994 0)
(-0.659557298567 0.0142988300406 0)
(-0.241609622914 0.00523796028293 0)
(-0.835770928133 0.020008334966 0)
(-0.307447452556 0.00736028426945 0)
(-0.578513158448 0.0125418388165 0)
(-0.574296140348 0.0137486351331 0)
(-0.164522226631 0.00393865796115 0)
(-0.304108041025 0.00659289071931 0)
(-0.186359976326 0.00404017912262 0)
(-0.394655556047 0.00944804407019 0)
(-0.239416292109 0.00573162000208 0)
(-0.446824343415 0.00968689961941 0)
(-0.271173729084 0.00649189224328 0)
(-0.946796355001 0.0226662808885 0)
(-0.382820769353 0.00829933825137 0)
(-0.386121264069 0.00837089111433 0)
(-0.506678011658 0.0121298588356 0)
(-0.506716268556 0.0121307747048 0)
(-0.204418866421 0.00443168566915 0)
(-0.128069449087 0.003065979385 0)
(-0.0997239327727 0.00238738843848 0)
(-0.178761846161 0.00387545594831 0)
(-0.0388234929979 0.000843481452328 0)
(-0.239280215299 0.00572836232668 0)
(-0.0517668502765 0.00124753894057 0)
(-0.0940526293564 0.00204339286033 0)
(-0.12808452999 0.00306634042144 0)
(-0.099772239411 0.00238854489819 0)
(-0.182317222452 0.0039525345 0)
(-0.0395059031478 0.000858307534678 0)
(-0.239334049006 0.00572965110426 0)
(-0.0517843856305 0.00124796152833 0)
(-0.0949332519441 0.00206252531755 0)
(-0.0604933062467 0.00144820822769 0)
(-0.00889736687999 0.000162907694023 0)
(-0.0183340134133 0.000398325834868 0)
(-0.0184650148766 0.000401171980229 0)
(-0.024453045248 0.000589298479615 0)
(-0.024456915207 0.000589391742477 0)
(-0.0444031326783 0.000964705026451 0)
(0 0 0)
(-0.0355730605808 0.000857281794679 0)
(-0.00773182583774 0.000134588977007 0)
(-0.0128553376243 0.000223774665421 0)
(-0.0100796900447 0.000184555620085 0)
(-0.0190405815381 0.000458862511299 0)
(0 0 0)
(0 0 0)
(0 0 0)
(0 0 0)
(0 0 0)
(0 0 0)
(0 0 0)
(0 0 0)
(0 0 0)
(0 0 0)
(-0.00470739634364 5.6872038311e-05 0)
(0 0 0)
(-0.00785078310562 0.000143745109004 0)
(0 0 0)
(0 0 0)
(0 0 0)
(0 0 0)
(0 0 0)
(0 0 0)
(0 0 0)
(0 0 0)
(0 0 0)
(0 0 0)
(0 0 0)
(0 0 0)
(0 0 0)
(0 0 0)
(0 0 0)
(0 0 0)
(0 0 0)
(0 0 0)
(0 0 0)
(0 0 0)
(0 0 0)
(0 0 0)
(0 0 0)
(0 0 0)
(0 0 0)
(0 0 0)
(0 0 0)
(0 0 0)
(0 0 0)
(0 0 0)
(0 0 0)
(0 0 0)
(0 0 0)
(0 0 0)
(0 0 0)
(0 0 0)
(0 0 0)
(0 0 0)
(0 0 0)
(0 0 0)
(0 0 0)
(0 0 0)
(0 0 0)
(0 0 0)
(0 0 0)
(0 0 0)
(0 0 0)
(0 0 0)
(0 0 0)
(0 0 0)
(0 0 0)
(0 0 0)
(0 0 0)
(0 0 0)
(0 0 0)
(0 0 0)
(0 0 0)
(0 0 0)
(0 0 0)
(0 0 0)
(0 0 0)
(0 0 0)
(0 0 0)
(0 0 0)
(0 0 0)
(0 0 0)
(0 0 0)
(0 0 0)
(0 0 0)
(0 0 0)
(0 0 0)
(0 0 0)
(0 0 0)
(0 0 0)
(0 0 0)
(0 0 0)
(0 0 0)
(0 0 0)
(0 0 0)
(0 0 0)
(0 0 0)
(0 0 0)
(0 0 0)
(0 0 0)
(0 0 0)
(0 0 0)
(0 0 0)
(0 0 0)
(0 0 0)
(0 0 0)
(0 0 0)
(0 0 0)
(0 0 0)
(0 0 0)
(0 0 0)
(0 0 0)
(0 0 0)
(0 0 0)
(0 0 0)
(0 0 0)
(0 0 0)
(0 0 0)
(0 0 0)
(0 0 0)
(0 0 0)
(0 0 0)
(0 0 0)
(0 0 0)
(0 0 0)
(0 0 0)
(0 0 0)
(0 0 0)
(0 0 0)
(0 0 0)
(0 0 0)
(0 0 0)
(0 0 0)
(0 0 0)
(0 0 0)
(0 0 0)
(0 0 0)
(0 0 0)
(0 0 0)
(0 0 0)
(0 0 0)
(0 0 0)
(0 0 0)
(0 0 0)
(0 0 0)
(0 0 0)
(0 0 0)
(0 0 0)
(0 0 0)
(0 0 0)
(0 0 0)
(0 0 0)
(0 0 0)
(0 0 0)
(0 0 0)
(0 0 0)
(0 0 0)
(0 0 0)
(0 0 0)
(0 0 0)
(0 0 0)
(0 0 0)
(0 0 0)
(0 0 0)
(0 0 0)
(0 0 0)
(0 0 0)
(0 0 0)
(0 0 0)
(0 0 0)
(0 0 0)
(0 0 0)
(0 0 0)
(0 0 0)
(0 0 0)
(0 0 0)
(0 0 0)
(0 0 0)
(0 0 0)
(0 0 0)
(0 0 0)
(0 0 0)
(0 0 0)
(0 0 0)
(0 0 0)
(0 0 0)
(0 0 0)
(0 0 0)
(0 0 0)
(0 0 0)
(0 0 0)
(0 0 0)
(0 0 0)
(-0.0277412677194 0.000668541963746 0)
(-0.0605514799144 0.00144960090383 0)
(-0.0694011712709 0.00150781385745 0)
(-0.0140923908364 0.000245308224224 0)
(-0.0881019513841 0.0021091584968 0)
(-0.0225686364862 0.000490327500451 0)
(-0.0190662001676 0.000459479899411 0)
(-0.0356201751121 0.000858417216521 0)
(-0.128186318332 0.00306877723178 0)
(-0.0888485010703 0.00193032766846 0)
(-0.0326384037281 0.000709103845441 0)
(-0.113125136453 0.00270821291702 0)
(-0.0403627490485 0.000972709386754 0)
(-0.0289004594625 0.000627893052326 0)
(-0.00505563067906 5.98596728634e-05 0)
(0 0 0)
(0 0 0)
(0 0 0)
(0 0 0)
(-0.00454719258542 5.4936549219e-05 0)
(0 0 0)
(-0.00890786942187 0.000163099991914 0)
(0 0 0)
(-0.00849744748044 0.000147916260346 0)
(0 0 0)
(-0.0100937608917 0.000184813252401 0)
(0 0 0)
(-0.00582708988523 7.039952768e-05 0)
(-0.035615805083 0.000858311902378 0)
(-0.12818068644 0.00306864240444 0)
(-0.0874774885436 0.00190054097108 0)
(-0.0324454047706 0.000704910738937 0)
(-0.113109872888 0.00270784750765 0)
(-0.0403611720627 0.000972671382678 0)
(-0.0284156473346 0.000617359996019 0)
(-0.0277344191566 0.00066837691896 0)
(-0.0605251907353 0.00144897154155 0)
(-0.0674427940148 0.00146526604002 0)
(-0.013467779999 0.000234435535754 0)
(-0.0880790653932 0.00210861060676 0)
(-0.0190580302459 0.000459283010951 0)
(-0.0218903487042 0.000475590980904 0)