/*--------------------------------*- C++ -*----------------------------------*\
| =========                 |                                                 |
| \\      /  F ield         | OpenFOAM: The Open Source CFD Toolbox           |
|  \\    /   O peration     | Version:  v1906                                 |
|   \\  /    A nd           | Web:      www.OpenFOAM.com                      |
|    \\/     M anipulation  |                                                 |
\*---------------------------------------------------------------------------*/
FoamFile
{
    version     2.0;
    format      ascii;
    class       volScalarField;
    location    "8";
    object      p;
}
// * * * * * * * * * * * * * * * * * * * * * * * * * * * * * * * * * * * * * //

dimensions      [1 -1 -2 0 0 0 0];


internalField   nonuniform List<scalar> 
28582
(
17096.1142007
17094.9011101
12197.2293936
12196.5297442
7296.32502176
7297.75830285
3616.55686006
3621.62664266
44.4871335079
49.7138188351
-27.5516935943
3618.75045449
631.097384437
641.45007757
3624.47575851
3625.63449208
644.137727219
1791.75844822
1792.39204125
17097.8093185
17094.7008186
17094.9126877
12198.8993425
12196.8191235
12197.005178
7297.58430684
7298.96143855
3621.39973137
3626.02840924
49.2188119058
-27.5657021194
-27.266425931
3616.57183329
3617.04734306
631.386231867
627.154100702
1773.52983947
3626.51095493
3626.91750158
3627.24753197
1792.60008372
649.939539322
1793.36673554
1794.16610269
47.5155000016
49.8808971012
-23.0236035328
-22.9631958369
48.8343485155
-22.9498359498
1774.60187496
1777.19342133
634.598374567
632.422450098
1775.04453969
635.733799127
1776.15976006
1779.98807835
1781.60106151
638.398335917
642.648654401
1782.70963987
639.533829533
1778.78540479
1788.12408611
1784.30216588
646.678998708
645.477283684
1785.36075419
648.042905627
1787.1213509
1791.16740587
650.321343728
651.282176461
1790.2197179
648.999888915
650.145780814
1789.43227655
1793.18820366
651.580495587
651.819501756
1790.96684662
650.956535944
1791.75126944
650.593013507
41.1501399061
-22.9538287531
37.5764900049
39.8723625646
-22.8506938815
-22.8903352759
49.531453637
-23.0031581109
-22.9408298033
49.3618247507
-22.9772585116
49.1744664174
-22.9118228095
1776.44451093
1781.81416654
628.946706375
631.896720238
1776.27992882
1781.73980542
629.650422566
1772.99530244
1771.50651964
627.432450467
628.061071879
1772.7857784
1771.80879476
628.221281861
628.923307622
628.684220819
1773.08783035
1773.19120669
628.465144042
1772.3024763
628.751549416
1792.04879709
650.973662333
651.840021463
1792.67852871
651.055632354
1792.25166074
651.871042497
1792.28363046
1791.32478867
650.587914023
650.645959776
1792.0048569
1791.62009048
651.361368058
1794.4292132
1794.22022934
652.217245797
652.503707238
652.84212136
1793.51962998
652.447160413
652.822420551
652.368678215
1793.44135208
1793.12230755
651.471591755
1792.43964113
652.095439528
7298.65465774
3626.10861964
50.0159460943
-27.1927243726
3615.85853905
630.119522028
3626.61133746
3625.01917462
649.590011434
651.885925538
651.249050577
3623.61494414
3622.85684596
650.851102528
649.953759557
42.9666281964
50.4794307118
52.3110040795
-22.8402670796
-22.8850050913
-22.8095809468
53.6468191647
53.4687653434
1775.21844009
1773.80347026
629.165685997
633.157248724
1773.01253333
631.618716049
1775.27363221
1790.15100689
1790.71435828
649.865092041
650.308861541
1790.10830549
1790.93370205
650.573850471
1790.46530996
1792.47009428
651.116774817
651.722514269
1791.58480253
651.183260494
1791.08938939
1789.1789884
1787.60566993
651.134029063
651.510448216
1787.79484667
651.2022851
1789.4278209
1786.10651341
1786.12418351
650.967821066
650.562140183
1786.72052903
650.753562274
1785.27558834
1785.87314368
1785.03885351
650.252920743
650.314630006
1785.85096017
650.54456051
1784.98860114
3652.89864246
3649.16921982
3648.07368128
3646.39611331
11.1701340821
12.9658823268
8.67813523562
10.4012088257
10.4357718941
-27.123101901
-27.2081260438
-27.0912542718
-27.1266982343
-27.0374595456
-27.0565649883
3654.36139917
3653.69789868
623.134009395
622.770529885
3655.17468852
623.810844486
3652.03637502
3650.53433914
622.334150821
620.002416802
3653.66261663
3650.74569577
3650.80787269
623.189625039
625.824758894
620.671586157
622.037044946
3650.13451127
3648.45133472
626.223289397
624.785271937
622.368262768
623.046901487
3648.84114461
3647.70121889
619.693202869
621.114770063
619.818876382
3646.76567805
3647.0326912
3646.18454021
621.519082013
622.931002026
620.394480349
622.936249234
620.395921141
623.32128215
10.287386237
10.3290495285
11.7817961071
-23.2139470455
-23.2060700469
-23.2215243838
-23.2152783133
-23.2237999929
-23.1735259482
-23.2239854091
-23.1614492023
10.0536575918
9.18119405572
12.3021595966
9.94739700288
10.5475429802
-23.224797836
-23.2267380271
-23.2321519935
-23.2308223689
13.1994803609
11.2928104964
12.1119819443
-23.2136552898
-23.1681860647
-23.2223718195
-23.1881171816
9.39757719249
9.07885056688
-23.2248207551
-23.2245022191
-23.2173993879
11.4576206465
10.1544578215
11.4372718747
-23.216588077
-23.1823576327
-23.2128082911
-23.1822757494
1815.52050499
1816.47857036
621.889176557
623.105716539
1816.28732988
621.953318434
1815.64782356
1815.28282274
1815.49468002
623.048849802
621.661107436
1815.9876681
1814.84442999
621.945389299
1817.6163607
1816.20118888
624.159188682
624.853293066
1816.82581198
1816.86876747
625.419379886
1813.63828963
1814.8389163
621.318423078
621.693803266
1814.27144319
1814.17706887
620.74486182
1813.00044171
1812.88362834
620.76615667
619.273641354
1813.45955368
1812.5660547
619.85955966
1815.01724992
1815.37909971
624.075015292
622.460766573
1815.91477236
1814.60345571
623.185323952
1815.40792347
1816.74650936
624.991607157
624.552545142
1816.41569049
1815.6079078
623.951704529
1814.18390417
1813.17509999
621.583652523
621.232628243
1813.85739241
1813.40426453
622.217195522
1814.37992155
1813.53323293
623.18190461
621.627223057
1814.44564731
1813.52559816
622.6877484
1814.82213455
1816.67885277
626.191480517
624.769052495
1816.18137272
1815.36604363
624.815082802
1813.89575467
1813.27902618
625.629769725
624.051738475
1815.15708079
624.537322067
1812.41767037
1813.63067411
1813.26364902
623.477356706
622.729798214
1814.16563646
1812.8156435
623.680774996
1812.75823226
1811.23646472
623.432213373
622.925792335
1812.13604118
623.649605103
1811.52640975
1812.17547946
1812.55205507
620.226473801
619.124887996
1812.7018008
1812.14686002
619.604414878
1812.12173162
1812.69440737
620.696566149
620.449696299
1812.74794279
1812.01138924
619.990755844
1811.59884618
1811.07224019
620.040810336
619.334451021
1811.49372146
1811.18231724
619.536559799
1811.6273528
1812.439083
621.953198004
620.915677249
1812.11736881
1811.82468086
621.412402783
1811.38050234
1811.13434658
622.416846176
622.845265733
1811.65990303
622.016445867
1811.174323
1811.27466215
1810.98921061
620.550790147
621.019262359
1811.3692595
1810.99694353
621.108898501
1811.16217902
1811.18797019
622.755181747
621.830200407
1811.0030993
621.815201942
1811.17413496
1810.41076998
1810.6573464
621.109683218
620.528929058
1810.72733298
1810.29063589
621.382482298
1811.16860699
622.085851819
1810.86417786
17094.7524549
17093.5394078
17093.8084475
17095.0190575
17095.2198848
17101.9777856
12195.7597489
12195.1296148
12195.9448804
12196.7881617
12196.6076243
12203.2931821
18311.6142676
18313.7336672
17085.6430089
17091.4264456
17096.7929227
17100.9563464
17106.8175162
17096.2332273
18313.6443639
18314.7087007
17090.9246361
17093.1498491
17095.5233991
17096.5368092
17096.5119437
17103.7306591
17093.6019189
17090.6991522
17090.9319017
17092.7662934
17094.7193002
17095.637305
17096.0754896
17104.3471776
17096.36582
17093.1195028
17092.5872533
17093.7324211
17095.04486
17095.4540326
17095.5482333
17103.6509602
17094.5842856
17094.9844277
17095.157076
17102.5710025
13411.4854777
13412.4876542
12189.6725774
12193.7176337
12198.1158712
12203.3912474
12223.2441179
12155.7623924
13415.4104611
13415.1576569
12194.0777797
12196.8517125
12198.1769948
12197.5014085
12194.7996209
12187.5407542
12194.2340019
12191.9258205
12192.8663179
12194.9864155
12196.6132929
12196.7029154
12194.888864
12200.4864046
12197.3006363
12194.1950226
12194.3086099
12196.0562594
12197.3839806
12197.0269365
12195.9522392
12203.2638569
12196.7917913
12196.7072894
12196.2392847
12203.4086745
8511.05559539
8510.80976626
7289.40796896
7295.35726763
7300.72551729
7305.39720072
7318.18230704
7245.04844577
8515.52301506
8514.43577466
7289.45990484
7295.23343141
7299.00332095
7297.88177754
7289.62556643
7278.8197365
7293.38255386
7289.73606216
7292.66862518
7296.46587443
7298.56922764
7297.72264278
7292.92208883
7298.95094525
7305.12984222
7296.258321
7292.28895769
7294.33352134
7297.4313266
7298.71928077
7297.63527831
7294.30139877
7301.94236893
7294.22470617
7295.75692221
7297.96036931
7298.51948031
7297.45865125
7295.2716881
7303.54700987
7297.0986158
7295.43918627
7303.56476936
3616.07099982
3607.52768063
3610.7061927
3621.84161379
3628.33738308
3632.50329791
3635.15472473
3637.46073642
3628.00496401
3617.68137066
3609.14376922
3611.68973184
3621.46073904
3627.5310473
3628.91758356
3624.59953321
3616.32348881
3644.59584297
3635.79037985
3619.66358038
3610.74670194
3614.77305978
3622.54302787
3627.18537164
3626.88490768
3623.39716665
3623.96414692
3637.80743112
3621.4065438
3613.04518693
3617.20785559
3624.3874925
3627.56585152
3626.05585945
3623.55004088
3626.05463087
3615.32012769
3619.13905798
3625.40762923
3626.81791477
3625.31789947
3623.87389485
3625.48136112
3624.13746311
3623.31380993
3625.05589294
31.9237336912
39.8687865601
44.1045401573
47.4667656317
46.9106160556
47.8356176037
52.4951748655
53.1609684351
14.1781775083
21.5250689553
31.9412513997
37.0357584326
41.7951891612
46.9381443614
46.3547517468
47.7244305868
50.3989685718
48.834779362
13.1109035875
22.3920508148
32.7619034438
35.9623714159
40.6036551177
45.1498729366
45.5261664023
47.636824357
49.4514111896
47.6968536283
25.0216759289
35.1393512482
37.3886212854
40.4482224684
43.1827402631
44.3924664716
47.5837393004
49.3194100911
48.0101199574
41.3324859861
44.2608535258
45.5135186236
46.4108466953
49.287559994
49.7964588559
48.0037414335
52.6438703074
50.9489383181
48.3165871505
-27.15684886
-27.0268007651
-27.162757547
-27.3802079764
-27.3743779818
-27.0957543472
-27.2043338846
-27.0818441603
-27.1555450873
-27.5002237651
-27.3450970971
-27.2770327685
-27.8041855717
-27.1789552207
-27.3143019123
-27.1982528302
-27.238715479
-27.1022322603
-27.1493535292
-27.3848730617
-27.1930009543
-26.9658212952
-27.1715113871
-27.0906058513
-27.224346562
-27.1526196894
-27.366110838
-27.0982561983
-27.175168935
-27.3371648151
-27.0627769793
-27.3068677017
-27.1877045885
-27.261479781
-27.0686283348
-27.3988328503
-27.099309889
-27.192056314
-27.3615063384
-27.4831290154
-27.3613227982
-27.4762891316
-27.2807429662
-27.1163368274
-27.1692402014
-27.483222812
-27.0950913027
-27.2085411273
-27.6421097421
18312.8388503
18311.8416616
18313.0842301
15861.8782141
15863.1170239
15862.6348594
15863.395439
18314.2357418
18314.2701798
18315.028042
15864.0548211
15860.5402023
15863.8985539
15862.8035797
18313.8649078
18315.9735592
18315.0328023
15864.3836189
15864.8049704
15866.4615742
15865.8956213
18315.088118
18315.1065418
18315.5107026
15865.2008138
15864.9411262
15866.1703968
15866.8457195
13412.216949
13412.9193854
13413.0733888
10960.7841508
10961.3604985
10962.4875299
10962.6995248
13412.777979
13412.9418713
13414.0150093
10961.5524194
10961.8040242
10962.6066596
10962.4917036
13415.2139225
13416.923587
13416.4436845
10965.3849731
10965.2863055
10967.1856583
10966.2200488
13415.0145337
13416.3524711
13419.44742
10964.9770731
10961.4490155
10965.3174398
10967.9261219
8511.03537414
8513.05208587
8512.68231256
6062.87657903
6061.04961739
6064.59234617
6062.53917046
8510.74735742
8512.16492514
8512.36912754
6059.92896346
6059.52415266
6060.80737901
6061.74202857
8514.99458373
8517.25242925
8515.76789269
6066.30208848
6064.10683668
6067.65418931
6064.80854107
8510.90712352
8514.56843081
8516.1579976
6062.39856335
6061.27617024
6062.89298927
6064.2484004
3619.61296425
3621.70100425
629.321252565
629.663679139
3611.2916204
3617.60179469
3612.30904747
631.261832458
625.200616243
630.706532788
624.623146155
3607.02861767
3608.44468415
3607.57863601
622.057959909
624.118021603
621.294513568
624.168152846
3616.78773483
3610.85620611
3616.49084041
628.821711278
642.578218379
628.429442944
641.826694139
3625.52310426
3621.57506662
3625.16340259
646.358705586
650.03282455
645.339911796
648.833596516
3630.47374353
3627.96222556
3629.77595428
650.668983526
653.136583518
649.405743605
651.61420668
3633.69191933
3631.095295
3631.45150807
654.001692196
655.287898197
652.644815054
653.329966121
3635.02054034
3629.54541687
3623.48706726
654.862044511
656.138640751
652.274234879
649.026341723
3592.96202831
3611.55914965
3607.58105493
658.375175258
615.676090863
648.965133383
631.986218465
3644.34184658
3638.76645664
623.588604411
624.398981756
623.240224592
627.27429916
3622.71914967
3632.56013087
3625.53619036
625.980873393
629.789669057
629.67131471
631.096188309
3612.79014252
3618.47504261
3612.72962247
630.077472219
624.015046163
629.264658972
621.896013201
3608.64487166
3609.9527441
3610.26150843
620.886964139
624.479861643
619.618282898
625.884938804
3616.68622224
3614.02595344
3618.54430485
628.670208031
641.823109919
629.916467331
642.213302319
3625.00303522
3622.53036763
3625.34795172
645.259648403
649.005800885
645.002815534
648.848158119
3628.68010939
3627.46608159
3628.14538784
649.505042534
651.397762788
649.177473715
650.833748595
3627.5632907
3627.78584411
3626.12920746
652.218310783
652.392432075
650.821549514
649.127916266
3621.04672809
3623.80971064
3621.35732118
651.182477243
647.52575742
648.080204914
645.944199504
3625.97938933
3619.37311003
3633.80777911
647.481618063
633.406149824
646.753809223
633.878902802
3641.11433483
3644.95267902
3642.46977668
623.494736673
628.119926412
624.428612779
632.258719281
3627.91726783
3637.38529329
3629.29172992
630.686812553
631.430751075
634.968728189
632.386017142
3613.331886
3620.71551196
3614.25899443
628.995814782
621.307423369
628.690174439
621.553764538
3611.26487357
3611.89103889
3612.60070708
619.375084439
626.623805715
621.092057635
628.9899921
3618.99187228
3616.13210637
3620.23827018
630.38300524
642.040560955
631.943112086
641.149898147
3625.31327989
3623.65530078
3626.01827688
644.626284507
648.581050434
643.30302737
647.638224697
3627.69065326
3627.56149072
3627.56171198
648.870186698
650.356103559
648.273079464
648.234812632
3625.06565667
3626.47004248
3624.8037075
650.155893811
648.126363215
648.081739882
646.955357957
3622.72706258
3623.38955267
3623.54285541
647.255798496
646.061305891
646.492567915
646.706231477
3637.11565151
3625.57526001
3637.47770937
647.335339824
633.85273024
648.221542434
633.880397089
624.945226878
633.610767993
3629.76622949
3629.32816282
636.381001964
632.659692225
633.92616848
3615.26841959
3621.50859485
3615.98888241
628.869849855
622.43563996
630.72938132
626.061876273
3613.95632984
3614.23852755
3615.09498992
622.385681072
629.841370208
626.414066159
633.324995502
3621.1601443
3618.19798309
3622.01101125
632.625180398
641.23419821
636.236004025
643.506804892
3626.51252933
3625.01936169
3626.800858
643.300530054
647.504256244
645.390268712
647.845283541
3627.19395882
3627.29591748
3626.72427986
648.035168091
647.819155571
647.648049673
647.490476082
3624.6192688
3625.71598663
3624.60977144
647.715820206
647.091866568
647.988559726
648.489230365
3623.9956468
3623.84228389
3624.2137405
646.808119715
646.843138759
648.317351711
647.153011036
3636.910561
3625.80109702
3635.78471548
648.102935964
633.602058313
647.615151013
630.896898512
3615.98782167
3617.24851741
627.541100448
634.777693076
639.564037261
3622.78152475
3620.26828572
3623.50124421
637.704014904
644.803641594
642.339052771
648.833811012
3626.67557911
3625.5859955
3626.41018289
646.394478523
648.126687936
649.661586318
649.259225978
3626.25828581
3626.33680531
3625.71463975
647.580329393
648.002756725
648.844142635
649.80080675
3624.42156254
3624.80785626
3623.99743647
648.477106507
649.08735535
650.210650147
650.111622847
3624.19193999
3623.69440917
3624.0661853
648.752290648
647.096200273
649.375164121
647.213908401
3634.7073213
3625.21595518
3633.77259754
647.217966336
629.671439178
646.921225314
626.497808951
3625.18054805
650.356712367
3623.4075192
650.573653838
650.194984044
3623.82730422
649.489443797
647.495058032
3633.09688431
647.382824186
626.27504282
-23.1017338671
-23.055761948
-23.0915966286
-23.0533816351
26.3217086495
26.317578681
-22.974390682
-22.9501341598
-22.9671594472
-22.9466219815
36.3083512517
31.7828865617
35.8910864046
-22.8661982792
-22.8348839233
-22.8074945061
-22.7988319659
41.1075576076
38.5314723173
39.7555085276
-22.8938218188
-22.9562752434
-22.8576100977
-22.9269597187
45.6622221128
42.7130855912
44.8709923529
-22.9958339923
-22.9618466566
-22.9839246792
-22.9434502824
47.2950671591
46.8399393193
46.7397848548
-23.0360773184
-23.098141441
-22.9718206839
-23.0396241933
47.2754383631
46.2997832548
47.0947462571
-23.0903375195
-23.063169773
-23.0416982373
-23.0446594554
50.239133089
47.9353520089
49.8551213024
-23.0099495052
-22.9771252216
-22.9971606896
-22.976278735
53.4572186648
51.4107631496
52.0633093128
-22.8972420411
-22.9121131382
-22.8984678001
-22.9201406311
54.6050487817
50.6807361866
55.2161354379
-23.0082346249
-22.9930794294
-23.0385760265
-23.0201969003
17.0282203405
13.6326995774
16.8287127608
-23.1386320445
-23.087680529
-23.1609285709
-23.0923349227
26.8738941174
21.8008300558
27.3976490153
-23.0355316992
-23.0098827951
-23.0259637375
-22.9891609161
35.4581976391
32.1242360258
35.0758580257
-22.917785219
-22.9462415976
-22.9416337336
-22.9704838992
38.6066329056
36.2132982724
38.16291071
-22.8849147024
-22.9197082497
-22.8872662029
-22.9268991792
44.7814678631
41.3097839665
44.6264353935
-22.9958446666
-22.9715015593
-23.027148868
-23.040602195
47.0110592041
46.2877103585
46.7494078728
-23.015724236
-23.0386964163
-23.075248856
-23.0772299873
47.1740357272
46.2680304006
47.0821350299
-23.0433086161
-23.0471682468
-23.0426457025
-23.0268886835
49.4191341222
47.8393109437
49.2140619123
-22.9878630063
-22.9539028421
-22.9703134216
-22.923919821
50.7996580809
49.6209615076
49.5754208857
-22.903115303
-22.9414917907
-22.8954168352
-22.9470287278
54.0918762744
47.8691128795
53.3748870466
-23.0578237968
-23.0152172908
-23.0556685997
-23.0055823544
16.7185606368
13.2917923277
17.1068702463
-23.1508686314
-23.0487733023
-23.1509540762
-23.0459245145
28.3770476745
23.4532147292
29.6702945311
-22.9498969031
-22.8784490783
-22.918666997
-22.8403665123
35.105254053
33.8296638324
35.6208322416
-22.7993113325
-22.8067574399
-22.7368060645
-22.7418968022
38.0987307739
36.3357620171
38.2795420089
-22.8373792455
-22.9139175171
-22.8220119673
-22.908031146
43.7797672409
40.0323326205
42.602646009
-23.0017150884
-23.0420311166
-22.997970487
-23.0545877255
45.9247781467
43.8378659324
44.7553906415
-23.0623993691
-23.0752705756
-23.1051552916
-23.1241372666
46.3830905349
44.5814843282
45.7316213662
-23.0759917255
-22.9934883007
-23.1064589402
-22.9766316613
49.0530791069
47.5070073218
49.0961396709
-22.9037344164
-22.8838234163
-22.8837885878
-22.8651202698
49.1947292878
49.4105422815
49.0612547653
-22.8780682623
-22.9382487378
-22.8719673968
-22.9321839637
53.1232403577
47.9774656521
53.0401656452
-23.0435409753
-23.0016295856
-23.0311413602
-22.9934688298
31.2165451437
32.8098404385
-22.9048565161
-22.8259477203
-22.8371330603
36.672867459
36.507410088
38.239102167
-22.7501638525
-22.7678200064
-22.7636330038
-22.7876479524
38.9609520338
39.2942176757
40.7111361916
-22.8374678207
-22.9091949772
-22.8457949635
-22.9085249374
42.2440550488
42.024414929
43.0030288143
-22.9882393555
-23.0513619751
-22.9710964386
-23.0067009282
43.9237522972
43.8684045501
44.3068187919
-23.0913170242
-23.0943714683
-23.0289985793
-23.0050250299
45.7197459657
45.0798720606
46.5779893201
-23.0550983629
-22.9399528136
-22.9845622562
-22.9039478135
49.219759286
48.1569441833
49.5553452805
-22.8484405131
-22.8426762127
-22.8266738417
-22.8182947913
48.8564800364
49.4075913192
49.0855571728
-22.8600508555
-22.9215366049
-22.8516518681
-22.9156075124
52.8286651566
48.0376275834
51.820932493
-23.0152149302
-22.9829679563
-23.0065896037
-22.9669244433
42.9386487647
45.2994301612
-22.9284568338
-22.9628090345
-22.9870692577
-22.9919721164
45.1474305067
46.5651841229
47.7339703072
-22.9869820257
-22.9965578374
-22.9411725159
-22.9479913576
46.0289985313
47.7355282673
48.0487258295
-23.0200848744
-22.9836308313
-22.972331481
-22.9563992144
47.9458418918
48.6131645817
49.8322297998
-22.8374022964
-22.8289646551
-22.8562588607
-22.808548311
50.4425609812
51.0426764393
51.665892425
-22.7834746771
-22.7950769018
-22.7575104011
-22.7709983012
49.3605925428
50.3427837666
49.6220338432
-22.8412575152
-22.9044448091
-22.8313505125
-22.8962946777
51.0481501929
48.0082301918
50.6103135103
-22.9996223714
-22.936757363
-22.9939748074
-22.9359502759
51.4592784507
-22.7834166275
52.6528907131
-22.7439121458
-22.754859013
-22.7535910067
-22.7570236387
50.0695657374
-22.8269262616
-22.8909923909
-22.8251865373
-22.8833151044
50.8370014356
-23.0051324109
-22.960193903
-23.0025121684
-22.9718210793
1789.71995985
1787.62993678
626.248303962
629.328057747
1788.12842106
626.422013096
1788.86513958
1790.6224354
1789.14117446
629.475388304
627.639725338
1788.66669584
1791.65834127
626.979788108
1780.03629409
1784.56256091
630.749548958
631.111316223
1784.94054842
630.627703309
1779.71619977
1774.16852874
1767.3549847
627.952366506
625.171008232
1767.88908039
627.985557086
1773.70089748
1780.34110612
1785.32045378
630.950449789
629.767839747
1785.28774981
1780.29024224
630.392817701
1774.47981159
1768.50751812
624.955157403
627.240390586
1768.31365342
1774.51367227
627.815034095
1760.87397667
1762.39323939
620.023839247
621.91583667
1762.91103536
619.91121704
1760.25249203
1762.41956099
1764.46548539
620.376859191
623.814219592
1764.94123765
620.26292219
1761.79003889
1761.90986402
1764.21726173
621.511754734
619.385186054
1763.59775689
1762.97533311
619.535935684
1763.68234346
1766.24139264
623.975473259
620.576772131
1765.60558696
1764.54881834
620.248190288
1772.80791457
1767.65179141
633.660101127
628.422905884
1768.15107226
633.217146507
1772.45590932
1777.93285263
1782.50752426
638.438804972
642.110623049
1782.77173505
637.950253746
1777.70901984
1773.19422832
1769.43234857
628.560387706
632.862425343
1768.80636085
1773.59139157
633.018729137
1778.12708198
1783.03716443
641.850991484
637.43694144
1782.9293001
1778.31335955
637.659595952
1789.227
1786.36114195
648.310778734
645.839999266
1786.50798309
647.702044586
1789.25768449
1791.20365639
1793.35527091
649.19610249
649.366090642
1793.09496301
648.515099572
1791.3902605
1789.14255542
1786.55603168
645.429815281
647.04101771
1786.55346203
1789.06392221
647.253667985
1791.04243804
1792.86596451
648.963812823
647.965065341
1792.92182272
1791.01704709
648.056934409
1795.50986922
1794.879244
651.268345406
650.008603857
1794.60269627
650.592852878
1795.86918943
1796.38786165
1797.61350309
652.23004809
652.605609446
1797.25437316
651.514580265
1796.81542353
1795.19486395
1794.25908191
649.606862864
649.660781381
1794.42357211
1794.95982693
649.963205802
1795.96707486
1796.24274203
652.024864717
650.530477066
1796.73850762
1795.6132743
650.896206663
1797.63010418
1798.02308922
654.732330082
653.658746086
1797.68225531
654.32188766
1797.94276277
1797.29517031
1797.27156742
655.360655901
654.795479867
1796.60668518
654.908593522
1797.74818069
1797.08289988
1796.58847608
653.128418978
653.437572757
1797.16048064
1796.43490693
653.958203709
1796.68669645
1794.318327
654.051984117
653.759197645
1795.6009687
1795.7852656
654.346936117
1794.63469949
1796.80961195
654.905974213
654.134534189
1795.69477842
653.727601743
1796.21061563
1793.8519
1794.04557662
655.447251485
653.958056445
1791.44445404
653.775614901
1795.95404868
1792.2846155
1792.40658868
653.219607154
651.18574442
1794.02331387
1790.18564564
652.538527273
1790.37816783
1785.23747042
651.128887067
649.919202564
1787.46217913
1787.90180053
651.654944635
1781.06338592
1789.51892096
662.943523093
655.52723948
1786.900114
658.926030802
1783.48277524
1770.76008772
1778.49513904
670.058786085
622.277906107
663.048977109
1783.8585817
1773.47395887
1777.91245707
1781.59552489
651.458868342
652.395436159
1783.12580892
1777.17119659
654.542271008
1768.83027129
1793.68936609
629.269765958
658.08629934
1768.89935071
659.488078848
1789.38952494
1807.66001616
1810.34639862
623.026905833
623.358427103
1806.94458878
623.310803913
1810.10606504
1805.13047697
1800.76530165
623.503347313
625.489719143
1803.54169004
1802.91931922
624.211196765
1808.13501344
1810.07521789
623.224930887
623.917150991
1808.87976162
623.591130384
1809.81782362
1806.42745214
1806.2686605
626.376437252
625.335890575
1804.69722027
1807.63138021
624.784937315
1797.60602878
1798.25534605
627.286524482
627.311378963
1795.56613361
1800.47464589
628.822127008
1794.07837462
1789.29500363
628.598085629
630.156597844
1792.6081857
1789.71369157
630.049416628
1799.54534944
1804.23114426
628.38900245
631.203786871
1802.48104438
1801.08607781
630.114872487
1795.4262716
1790.56359393
630.672539954
631.826208943
1790.29182823
1796.37057799
631.07460354
1779.48629696
1785.11652618
629.098858103
629.530950978
1779.96868373
1784.84317015
628.470890593
1774.27590366
1768.68043919
626.786354656
623.401970686
1774.48698851
1768.80177783
626.309006234
1778.86182835
1784.33459415
629.414872569
627.053822969
1784.68649443
1778.06124959
627.929589795
1773.66780284
1768.12638205
622.637053334
624.356670269
1768.56682295
1772.7594796
625.513541235
1764.82131856
1764.69806144
619.437785938
620.568520093
1763.83670669
1765.26405713
619.578967813
1766.25098916
1767.02399318
620.874199592
624.740242912
1765.15581899
1768.14408744
621.195292366
1765.82026304
1766.19467045
620.087607794
619.651649738
1765.72900986
1766.67666009
619.601930202
1767.51054471
1770.27099812
625.327529829
622.163566974
1769.29738751
1768.00562845
621.651137867
1774.86719198
1770.09477901
632.924118171
628.885502713
1774.02181489
1771.13077451
633.140363181
1779.12802064
1783.01395258
637.546558289
641.96518978
1778.53498656
1783.39704468
637.719091652
1775.9286147
1773.36755919
629.425503178
633.937034585
1772.27954619
1776.98831427
633.628784775
1780.06831376
1784.68847359
642.123520961
638.396939143
1784.03346171
1780.9911191
638.159843882
1789.19939501
1786.45473876
647.062189698
645.308865329
1789.04862891
1786.68395561
647.142562819
1791.19279556
1792.84759919
648.151308604
649.022592555
1791.10901989
1792.80031993
648.198796369
1789.41164924
1787.47752607
645.127897195
646.772246749
1787.0111043
1789.8226302
646.915773333
1791.30307386
1792.94171635
648.836530213
648.09172633
1792.80026705
1791.63882531
648.090163858
1794.72947306
1794.12112148
649.673715435
649.485157005
1794.74815244
1794.03962972
649.710712778
1795.22392667
1795.73835965
650.483268672
651.16479616
1795.31190047
1795.45069108
650.518080808
1794.75786177
1794.0266006
649.302623331
649.658455295
1794.03326454
1794.71392419
649.74440228
1795.12491728
1794.73223353
651.252118858
650.492130618
1795.10833686
1794.95616958
650.665885831
1794.79752181
1795.85646447
652.85163603
651.763162727
1795.6398963
1795.29277585
652.15451827
1793.54896297
1792.73846756
653.071559872
651.439850575
1794.70618485
1791.45252431
652.179156543
1793.67877515
1793.89072779
651.419045709
650.478751669
1794.5413412
1792.63892729
651.294505558
1792.2735814
1789.00149938
650.333742223
649.921723696
1790.22156844
1791.00571581
651.044934965
1786.65945925
1790.30819553
649.90195582
650.194569332
1787.88845234
1789.01999332
648.852409737
1784.60026458
1783.57397136
648.457029096
646.613542946
1785.62301088
1782.9925995
647.466986071
1785.93984234
1787.01183234
649.101328719
647.069924026
1787.95564087
1785.39208439
647.90434554
1784.30719479
1783.34907279
646.050034036
646.216088244
1783.08888662
1784.18241438
646.69014282
1778.22286868
1781.13000331
651.522736509
646.746574565
1777.9147323
1781.09920153
650.999295436
1771.34806528
1796.54291146
657.499900638
633.830516069
1771.06503768
656.947368756
1797.75151768
1779.06755106
1781.9979095
646.620484708
650.802558073
1781.53796542
1779.55235619
650.950064366
1772.60928537
1797.72775031
633.754935326
656.12202526
1772.94727749
656.930651016
1798.03742371
1810.49619813
1810.41683751
624.371469061
623.7596331
1809.59283592
624.968507217
1810.87803626
1809.87336628
1807.54711084
625.947185176
629.28665982
1808.66985175
1808.86065272
626.850419356
1811.33580249
1811.45845583
624.084993017
626.499237718
1811.93613676
625.792859885
1811.26308581
1811.00365824
1811.17078237
630.764952558
629.280191647
1810.12115763
1811.94699649
628.162747142
1803.02594473
1805.57523003
632.216430609
631.897368249
1802.20396945
1806.7655056
633.241872437
1797.3827484
1790.68611727
632.637081875
631.761753599
1797.0109775
1790.58521165
633.414404807
1803.57161995
1808.60712127
633.35664803
635.761498088
1807.79935307
1803.94836055
634.419336021
1797.47383295
1789.74682205
632.084051098
634.762709706
1790.26977812
1797.32144934
634.093179177
1776.5848015
1784.02972623
626.39815566
628.711343285
1777.36517521
1783.47184519
625.871737812
1771.57929865
1768.10207783
623.523869522
620.949567317
1772.08842206
1768.4310287
623.152380564
1776.04479383
1782.44170229
628.632600483
625.464757808
1782.93520246
1775.65173697
625.531272083
1771.33769741
1769.34943775
621.080000928
622.948266971
1768.85091603
1771.32516463
622.901485155
1768.06194359
1766.8293555
620.090805501
619.517454427
1767.47193574
1767.4225073
621.18894764
1769.44114909
1771.22978355
623.052074272
627.39296022
1768.45076658
1772.33232986
623.992052033
1768.89598686
1768.92983782
620.230173215