/*--------------------------------*- C++ -*----------------------------------*\
| =========                 |                                                 |
| \\      /  F ield         | OpenFOAM: The Open Source CFD Toolbox           |
|  \\    /   O peration     | Version:  v1906                                 |
|   \\  /    A nd           | Web:      www.OpenFOAM.com                      |
|    \\/     M anipulation  |                                                 |
\*---------------------------------------------------------------------------*/
FoamFile
{
    version     2.0;
    format      ascii;
    class       volScalarField;
    location    "8";
    object      p_rgh;
}
// * * * * * * * * * * * * * * * * * * * * * * * * * * * * * * * * * * * * * //

dimensions      [1 -1 -2 0 0 0 0];


internalField   nonuniform List<scalar> 
28582
(
19545.1004245
19543.8887295
19544.1924044
19543.4929822
19541.3042685
19542.7347292
19534.8807495
19539.9817351
1142.98396823
1251.17417557
0.548316100839
19537.0951256
16847.7713095
16946.2987289
19542.8722519
19544.0629741
16994.9325422
19521.2091395
19521.6618539
19546.7915765
19543.6852047
19543.8953518
19545.8629759
19543.7755862
19543.9492791
19542.5606009
19543.92528
19539.7288128
19544.4544112
1253.83430085
0.552255090496
-0.288925930999
19534.8481866
19535.2865088
17292.8764228
16933.400216
19500.4551226
19544.940073
19545.3416495
19545.626271
19523.4843794
17094.1437018
19524.0215074
19527.5529646
1197.78332241
1260.51517275
8.9568532237
15.3815680139
1222.35483105
25.8864980632
19501.176332
19504.6890138
16877.3443806
16844.7446812
19503.5038252
16884.4191761
19502.7214481
19507.0519741
19508.0368469
16907.3412507
16942.0959311
19509.8018821
16910.9219608
19505.3534103
19515.3494724
19510.7793014
17048.2399701
16990.3608128
19512.2989232
17048.8291481
19514.1854337
19520.8232736
17113.2316622
17106.677316
19518.2973543
17079.5537348
17079.6042498
19517.6757978
19522.5645599
17100.6119083
17127.7311804
19519.584786
17099.64886
19520.3504353
17078.3316409
1090.29236385
24.7381049392
1026.83525445
1066.947981
19.4439221881
20.737895979
1262.80144199
3.32160427064
7.92909849476
1255.60881944
5.27686868328
1250.03963581
9.13403497963
19504.5337388
19515.4549012
17104.6869405
17277.5288043
19505.7776544
19513.5530005
17098.5080318
19498.1334849
19496.5964255
16998.647101
16908.6239669
19499.225581
19494.8333636
16982.0830767
16942.4656654
16855.915409
19498.2325579
19499.3975317
16879.0064952
19496.6087784
16958.5245612
19523.2529117
17126.8282153
17123.9576865
19525.2985405
17136.5046607
19525.4882692
17133.6792018
19526.8679986
19525.7780003
17123.0706116
17088.2690867
19526.8677146
19526.0716597
17121.6860016
19526.5232733
19524.8719414
17120.9229045
17144.8600766
17160.3527789
19526.2254354
17144.3507685
17177.0245587
17159.1582356
19526.818046
19526.9837568
17106.4762464
19525.9406142
17135.0019031
19543.6176746
19544.5179776
1258.9790191
-0.215224372621
19534.1353877
16848.741627
19544.9849928
19543.3056283
17065.1829902
17112.8569593
16912.6909698
19541.8783077
19541.1631356
16857.8190119
16836.5613648
1124.478165
1268.40648523
1300.25026114
11.4542573832
9.9350995823
12.5135441259
1320.71825733
1316.94380836
19498.5651665
19497.3603436
16876.9102166
16863.9125996
19495.795068
16891.5767895
19499.1852706
19522.336734
19524.2501623
17038.4021285
17055.478687
19522.371972
19524.6790943
17023.2820392
19520.0016194
19525.0827249
17066.0252264
17051.7285095
19523.9042065
17016.0481525
19521.2871942
19514.843034
19509.0801558
16913.8926883
16983.3275838
19508.9008849
16964.144978
19515.7943868
19497.4147411
19502.2930008
16877.197089
16817.1503537
19502.33493
16847.3473624
19497.1637814
19496.5984396
19497.241638
16869.4798592
16821.0966297
19497.0115347
16853.6122796
19496.4583942
19571.3360683
19567.6086628
19566.5007972
19564.8187752
576.541128909
607.899805982
528.738379532
560.585753137
560.541510021
-0.145601900966
0.192763172668
-0.113754271807
-0.0825078552953
-0.0599595455939
-0.0708008382874
19572.8258597
19572.1713359
18593.1234905
18578.7295166
19573.6436942
18571.8034925
19570.4960987
19568.9969119
18571.7210778
18589.3206324
19572.0505384
19569.1907707
19569.231342
18565.3793146
18539.9812096
18590.6511445
18584.3633382
19568.5638946
19566.8851567
18530.9886452
18472.7740086
18568.5907395
18503.887963
19567.2621526
19566.1431883
18601.0863506
18586.1557536
18572.9764803
19565.2030979
19565.4669789
19564.6290423
18567.3948803
18526.6686251
18557.9263088
18516.8060038
18552.5021971
18508.0009283
559.606263185
560.704937518
587.099171552
1.29515624296
0.823500524123
1.18620049962
0.824899616878
1.39018549986
5.00130074018
1.45864624546
4.58566248253
557.144248495
540.407764407
597.703465477
554.086045954
563.935768083
1.07827884768
0.686246783678
0.626672081315
0.294313688406
609.820351638
577.244794415
590.478764866
0.874525565253
1.66151043828
0.314307619579
0.556179222176
541.895444374
536.560337404
0.429844182353
0.228228838239
0.236614266341
577.646757643
555.995214729
577.614197034
0.216001268626
0.278332760436
0.221858447663
0.272883092477
19569.993573
19570.773599
18606.3844686
18585.8398138
19570.3814965
18600.6691034
19570.1479093
19569.8897251
19569.8983415
18584.9994072
18594.9756991
19570.1443897
19569.5043749
18600.7690503
19570.2756983
19569.9915316
18573.7962109
18567.8051345
19570.3166438
19569.5631262
18566.259081
19568.0492603
19569.1465529
18585.9595192
18579.0842773
19568.8380067
19568.2984952
18584.2408119
19567.1113991
19566.6077715
18579.3068593
18591.6731354
19567.3182319
19566.7466082
18578.1380815
19568.1052276
19569.0877121
18556.9115988
18572.4130473
19568.5087637
19568.4654436
18562.4944338
19567.4012575
19567.2188258
18547.6362888
18547.7005206
19567.6291098
19566.2281311
18555.0511921
19567.4902535
19566.857863
18580.2223492
18592.1864759
19567.4976608
19567.010966
18578.0516755
19566.8352359
19566.9148229
18565.6487711
18591.4164727
19566.2115338
19567.1468325
18573.0606264
19564.8430778
19567.1160795
18519.9082866
18535.9160589
19566.6354383
19565.3710783
18523.928896
19563.7764512
19564.0756674
18500.4926287
18469.5463184
19565.7971462
18502.5328027
19562.5715171
19564.4650955
19565.916704
18552.8575625
18551.2528238
19565.4595819
19564.7785073
18537.5036928
19563.5274701
19562.379604
18485.3229424
18532.9734976
19563.3241984
18516.2482093
19562.0853905
19565.4286837
19566.0628742
18601.8047205
18620.8541562
19566.1827605
19565.5479214
18615.1568085
19565.3817237
19566.066345
18598.5160391
18583.6292267
19566.271407
19565.3463274
18600.6932454
19565.2000682
19564.346063
18578.5999721
18589.5883299
19564.8875096
19564.6159464
18595.7177496
19564.8168273
19565.4905341
18550.0542884
18566.625895
19564.7970058
19565.1159969
18550.1808144
19564.5933472
19563.5460265
18536.5681916
18529.9126091
19564.1134241
18537.2719409
19564.340795
19564.4609004
19564.2247937
18561.6473732
18543.3184372
19564.5822235
19564.1994906
18546.1757839
19564.3437187
19564.3075999
18523.7426948
18529.8695905
19564.153372
18533.4206872
19564.3940239
19563.4213076
19563.7084002
18537.2291783
18536.8100408
19563.703847
19563.4311136
18521.8725376
19563.9539002
18521.5045776
19563.7492227
19543.7387305
19542.5293451
19542.796904
19543.9971129
19544.1795293
19550.9293431
19542.7227588
19542.0936329
19542.9075968
19543.6966512
19543.491622
19550.1959998
19536.0611088
19538.2176382
19534.5875569
19540.4112102
19545.7853424
19549.9463407
19555.7788199
19545.0708689
19538.1312331
19539.1939092
19539.8618306
19542.107042
19544.5070319
19545.5116941
19545.4496175
19552.6776785
19542.5789062
19539.6846688
19539.9192394
19541.7556621
19543.7073646
19544.6124658
19545.034526
19553.3224372
19545.3463125
19542.1071262
19541.5774491
19542.7208995
19544.0224992
19544.4171841
19544.5141662
19552.634923
19543.5642932
19543.9476574
19544.1208349
19551.5507422
19533.5761896
19534.8811734
19536.6669465
19540.731927
19545.0988805
19549.788444
19568.5651542
19501.5283133
19537.3548196
19537.4762643
19541.0206505
19543.8273604
19545.1572635
19544.4571517
19541.4938214
19534.0702157
19541.097782
19538.8493773
19539.8282965
19541.9554261
19543.5805705
19543.6612498
19541.8089381
19547.4035152
19544.2691576
19541.1650455
19541.2792411
19543.0241058
19544.3456226
19543.9779136
19542.9003306
19550.2212348
19543.7446072
19543.6409117
19543.1748778
19550.3664056
19530.8317206
19531.2578599
19534.5520463
19540.5632723
19545.798573
19549.9305245
19561.3462955
19488.8675487
19535.0229161
19534.7573642
19534.4942605
19540.36006
19544.156521
19542.9779528
19534.6138661
19523.6855
19538.3290042
19534.7057274
19537.66868
19541.4795664
19543.582947
19542.7273166
19537.9152367
19543.9330202
19550.0979051
19541.2363668
19537.2716129
19539.3162777
19542.4112474
19543.6938429
19542.6070945
19539.27456
19546.9174846
19539.2165195
19540.7488339
19542.9485431
19543.5041733
19542.4411699
19540.2552482
19548.533878
19542.0671928
19540.4178516
19548.557702
19534.5115203
19526.0743268
19529.2582699
19540.6733016
19547.404997
19551.3923298
19553.5683139
19555.1296654
19546.4635817
19536.0647889
19527.5340157
19530.0986815
19539.9147193
19545.9851666
19547.3312406
19542.8661419
19534.5415742
19563.0498555
19554.2510587
19538.0797197
19529.1256952
19533.181988
19540.9516354
19545.6067919
19545.2675191
19541.6937787
19542.2889759
19556.3024856
19539.8328611
19531.4238821
19535.6337501
19542.8445943
19546.0141244
19544.4581687
19541.8163892
19544.3608576
19533.6419713
19537.475223
19543.8384078
19545.225816
19543.6430286
19542.1623457
19543.8056815
19542.4312524
19541.6048591
19543.451733
935.820189505
1069.28789529
1142.07117611
1225.47262985
1217.24300938
1231.1546995
1302.89514746
1314.95156289
617.569641983
747.23152278
932.078910195
1021.53740494
1120.59377963
1209.25412546
1203.24227714
1229.98950474
1267.00301932
1244.27889913
604.398709047
761.840108913
944.008825852
1000.8874262
1099.50739173
1181.71586098
1186.98608101
1219.82592567
1250.06709293
1228.6594629
808.649248827
985.674234573
1029.03524905
1093.26828019
1143.57361694
1162.63101908
1215.55274475
1247.32752479
1232.44622476
1096.07278098
1154.62314909
1176.46775341
1174.26396126
1244.50148034
1254.67847385
1227.42185962
1302.62400289
1274.62464985
1226.2519054
0.492361364993
0.0877294408467
0.385425933572
0.43970503223
0.469432696746
-0.0581225436524
-0.226833884603
-0.104344160265
-0.178045087313
0.940629590164
0.489591597524
0.342023089647
0.714437596811
-0.0990156649431
-0.336801912312
0.221843809993
0.109180106482
-0.107748007618
-0.171853529161
0.609684707398
0.199424724012
0.380733979008
0.357250589674
-0.0167111545809
-0.246846562042
-0.175119689396
0.393129677723
-0.0401293452634
-0.197668935042
0.34498643608
0.341608517346
-0.033856673314
-0.203714625715
-0.28397978095
-0.0911283348206
0.642575575967
-0.101993952391
-0.214556314043
0.311509608292
0.366327022355
0.321685521771
1.19067432658
0.444234801535
-0.138836827409
-0.191740201411
0.733122308005
-0.117591302739
-0.231041127266
1.3020782382
19537.306858
19536.3282047
19537.5707197
19535.2181826
19536.525783
19535.9832747
19536.7994488
19538.7153619
19538.7564399
19539.4965051
19537.3975186
19533.8775549
19537.2427898
19536.1406318
19538.3499547
19540.452696
19539.4889764
19537.8089123
19538.2452355
19539.9158938
19539.2637296
19539.5662396
19539.5730995
19539.9947497
19538.6325302
19538.3132553
19539.5754474
19540.2901686
19534.5635324
19534.9507756
19535.3265665
19531.5876724
19532.6637654
19533.1470658
19533.9209548
19535.2150425
19535.2489825
19536.3748324
19532.9575794
19533.2620946
19533.9541834
19533.9098072
19537.298465
19539.1762094
19538.6731444
19535.7437133
19536.2981532
19538.1756796
19537.359956
19537.388636
19538.6925576
19541.8718324
19536.2934724
19532.8497101
19536.6769456
19539.3782752
19531.3723934
19532.8314477
19532.9647751
19531.8814323
19530.4707574
19533.8280811
19531.9716945
19531.2173371
19532.5752887
19532.83729
19529.3797603
19528.9927061
19530.2609681
19531.2202321
19535.0799533
19537.4421194
19536.0066654
19535.3786183
19533.3893318
19537.0164886
19534.2384234
19531.3497887
19534.89793
19536.6133546
19531.8446219
19530.7425684
19532.3841877
19533.8111815
19537.4164011
19539.8585052
17777.1852977
17790.266056
19529.9031098
19536.045223
19530.76306
17659.5562705
17019.03849
17653.3298429
17052.1803039
19525.5248987
19526.898889
19526.0548843
16822.5568904
16688.298352
16891.7645145
16810.8458807
19535.4379638
19529.4510679
19535.2490042
16735.2425179
17028.4501873
16844.0482387
17072.82535
19544.4826615
19540.5183429
19544.2618729
17075.0981887
17195.8822542
17113.2116839
17214.2890608
19549.4997941
19547.0918061
19548.8499469
17226.7357121
17282.661657
17244.7567011
17232.1125265
19552.3800395
19549.9948474
19550.1847191
17304.5971365
17152.0437205
17238.3989776
17138.6047942
19552.8755962
19548.0676202
19541.8425623
17070.1889605
16997.7052485
17061.171896
16914.1622607
19510.5752415
19529.6376854
19525.5062978
17114.8834795
16761.000354
17005.9242287
16884.023552
19562.7409614
19557.1624513
18422.5041048
18236.6209566
18466.6473776
18328.7325998
19541.1245516
19550.9995812
19543.9710467
18142.9815363
17772.0931589
18241.710309
17769.0105641
19531.1683318
19536.8416725
19531.0196898
17622.7007749
17059.7102663
17561.4633054
17021.1710822
19527.0908173
19528.3007636
19528.6111882
16923.3071927
16853.5017492
16944.6237949
16942.5791741
19535.1185195
19532.5008379
19537.0360467
16873.3418014
17057.5446199
16968.4600761
17102.0454346
19543.4600393
19541.0438246
19543.875042
17103.0315251
17213.4942127
17148.0743429
17222.9713865
19547.1310957
19545.9589253
19546.6261101
17244.7339225
17227.6259645
17251.2858464
17258.9647739
19545.8940344
19546.2098944
19544.4976902
17237.6433654
17126.0004042
17231.7602444
17050.7176206
19539.286773
19542.1473993
19539.6594606
17048.7177481
16900.4194757
17004.5811185
16947.9278498
19544.3231079
19537.7061751
19552.2332458
17002.4824101
16937.3845696
17049.472232
16982.2378461
19559.5829876
19563.4092822
19560.9603958
18497.4778221
18347.3339176
18507.5792837
18440.8208552
19546.3597685
19555.8678501
19547.7490003
18253.5109453
17749.4357669
18325.255857
17658.3264985
19531.7002889
19539.1471555
19532.5848626
17529.3194203
17010.3696643
17404.2218539
16977.8989074
19529.7226546
19530.3291959
19531.0251388
16954.5583456
16971.5356934
16967.6593795
17054.7635122
19537.4126583
19534.6376611
19538.7293411
17003.0443695
17118.4459762
17096.5309325
17203.7424083
19543.7162782
19542.1447601
19544.5066497
17165.1540145
17226.5617271
17238.489942
17295.0599926
19546.0940573
19546.0149408
19546.0138664
17254.2886915
17266.1855493
17317.1333858
17236.9200819
19543.4014381
19544.8825441
19543.1504941
17218.1347772
17025.699934
17163.8148207
16965.3063504
19541.0439668
19541.7091603
19541.8683465
16987.9652379
16968.3655133
16949.3277279
16991.6404705
19555.5509477
19543.9944219
19555.9317219
17079.1917203
16989.0016305
17087.1490811
16984.2192977
18499.6332352
18447.616179
19548.2123213
19547.7523674
18326.8165912
17617.0380173
17516.2153419
19533.6515291
19539.8936707
19534.3084802
17364.7381802
16979.755353
17296.0640841
16946.5584376
19532.3876487
19532.6246189
19533.5083499
16974.0661267
17057.6705665
16929.2219422
17021.3284008
19539.6019118
19536.6774155
19540.4967598
17098.2403055
17220.2615102
17069.3820359
17236.3211487
19544.953552
19543.5166978
19545.3125506
17258.2052363
17318.7874445
17274.2454171
17303.71167
19545.6273151
19545.7650424
19545.1757771
17331.4355848
17233.1543004
17280.7939956
17143.3987765
19542.9555166
19544.1361796
19542.9557306
17160.1786731
16978.4619259
17104.1388312
17016.8872542
19542.2851535
19542.1654021
19542.5382552
16973.5355861
17001.8237269
17022.7067575
17017.6854076
19555.3082652
19544.1837133
19554.2276947
17087.7593163
16970.904726
17087.6163259
16938.5698038
19534.3046386
19535.5579592
16909.5271432
17012.3739451
16942.9367165
19541.1635765
19538.6339608
19541.9274125
17061.6272957
17221.7144512
16999.6006521
17145.204781
19545.0924796
19544.0314411
19544.8478863
17258.5750571
17267.9320939
17177.866424
17147.3921642
19544.6360305
19544.7659823
19544.1307753
17255.7942704
17125.1357801
17107.8628861
17018.3572352
19542.7279324
19543.2065568
19542.3380405
17090.9196606
17009.8700183
16989.5765871
16952.6980441
19542.494635
19542.0439685
19542.4387072
17018.455919
16992.4720935
16973.6823357
16980.9835543
19553.101552
19543.6689611
19552.2300908
17063.3240257
16936.0287646
17060.0533707
16909.2320698
19543.5572584
16974.6488957
19541.6805699
16948.0695662
16932.1108243
19542.1781605
16958.7371
16982.933905
19551.5508968
17063.5253395
16912.2853491
9.87761843446
12.3402134871
9.94660486924
13.4435748557
836.709560997
836.876043186
9.44941885677
6.50277984844
9.35003310037
7.90958514054
1008.21785222
930.555255891
1000.54711193
10.010898525
15.1803322184
11.3424350457
15.9415624393
1092.53423907
1043.97730157
1067.51882878
20.5625132724
24.0577769287
18.8395060392
20.2802965714
1175.27593586
1126.39973603
1165.08366638
29.1647175145
11.8284354207
16.8902493845
9.20586129566
1222.35052762
1210.2172504
1210.83271565
2.06687887663
1.00022358937
4.8201191211
2.34199603756
1224.79049053
1206.24344915
1222.62263266
0.526081052276
0.672469342978
0.683185132744
0.708625486784
1267.17869697
1234.76785726
1262.01492008
1.37781037745
8.48497743858
0.909994886632
7.37683993893
1320.79842931
1283.72228476
1295.52329701
11.5423503953
11.625463455
10.4081523243
10.5086055864
1312.16165562
1272.75444767
1345.3467846
12.7443892104
30.2861885805
11.1998528617
17.5675655643
660.302257415
612.930090234
660.137603476
6.45059551
12.8365872109
3.01958990243
10.3913084578
843.881440297
751.72923226
851.652739677
10.4634838814
11.128029314
10.5462295129
12.5452122411
992.303476975
933.480360553
984.843792786
16.5550707261
18.8223354845
17.344498782
18.7571950721
1051.67371292
1005.80245057
1046.95183605
14.6432847654
12.7745311437
13.5650851474
11.0604292198
1174.21054213
1111.45061985
1170.68947598
6.89349847493
3.68048540688
5.46556186825
2.76952334804
1210.38692075
1199.98131497
1209.13951994
6.86130266866
6.42300485532
4.42510146212
4.78013273497
1223.10774288
1196.62300651
1217.62647381
2.91601305881
1.29785008745
7.02263823548
4.81781389298
1254.94362444
1228.21863404
1248.66249144
1.45109851064
7.23221300442
5.57749324849
8.58157511827
1274.79768735
1252.90845927
1254.54389363
9.41571111667
9.14909975618
8.9829999776
8.11017930201
1330.45708027
1229.03644922
1315.64060097
7.79954941582
13.4055791077
5.78124729325
14.1292063123
660.205271029
607.76943586
669.580215298
1.50019671197
8.0502835952
0.774329987705
4.92847770924
866.940592917
779.762877697
888.427637151
9.28125506569
12.6719170033
9.11898576275
13.6414708752
984.599135746
961.186784268
992.167382748
15.2325407694
16.0214850094
16.2345116595
16.1667146114
1047.69758936
1008.28468094
1049.81078258
12.8104366611
9.91915659393
12.2605591156
9.88416547256
1157.82500868
1087.32492424
1135.22292774
4.59750802727
2.10968764998
5.05541383893
2.45260766702
1200.40265748
1157.47213977
1177.80727857
1.61370616577
1.22289482135
1.81951170969
1.26859823194
1197.56027826
1170.28761729
1182.96054574
4.2945426571
8.84681261137
3.61605544688
10.7585996403
1242.44721883
1215.85173777
1241.95390495
8.06620712553
10.3367456351
9.62736327585
11.7276557477
1248.84248091
1249.51875339
1247.76530232
9.69033675268
7.98286526339
10.4386143302
7.84816956086
1315.76783085
1232.85155765
1314.77876289
5.08939579804
11.2872645457
5.60009703981
10.8373156408
916.609198955
945.124251746
9.53484862928
14.4199330613
14.908068235
1012.66418614
1011.56068486
1041.80336056
16.0472739911
15.1814377449
16.2863185456
15.6298398956
1061.42604717
1063.66186323
1091.72919056
11.4575715226
9.33960470271
12.4500733885
10.7613740493
1126.94741101
1123.01234852
1141.35631095
5.41735430464
2.80042256036
6.92579667975
3.76312619461
1159.53374165
1155.01559172
1164.3482785
2.08990326928
1.45114312329
3.0152329333
3.44126321816
1177.3659425
1171.01360323
1187.34042268
5.67112845145
13.8255344373
9.79783508111
18.103435941
1243.21097525
1224.65634039
1248.29207966
10.5704701713
12.0212744998
11.6831417084
12.3158296676
1243.51851819
1248.03714779
1245.70158519
10.5094542346
7.96676378243
10.6760072902
9.0638202247
1312.17078693
1230.91933247
1293.12279349
6.25236826127
9.78710210193
8.54579727071
10.9006837949
1126.99454014
1169.98720694
18.7812966957
17.3683918108
24.4692400066
24.0315141522
1171.82171774
1188.19463467
1207.1834078
13.7250680589
9.71552954247
21.446140956
19.5872261589
1186.13804215
1195.66321191
1201.21012417
9.87563446898
11.8269769549
24.8679226667
27.6814540989
1212.15314787
1217.96665043
1247.11097609
22.2891907194
17.1885253633
22.7217282527
16.0846278456
1264.26696206
1275.48421065
1285.34830871
11.5651252745
11.7301535058
12.6102046626
12.4392234382
1250.01269997
1264.04557473
1254.26443579
10.4660167768
9.18317591746
10.8457636303
9.48006113135
1271.19232516
1224.07544445
1250.92184568
10.1896207519
15.8125754842
11.3525165406
25.9749216969
1284.06409542
12.2699256244
1302.26596608
13.8839967642
13.6241981239
14.3024381187
13.9317904458
1260.98253515
11.4031055271
9.98087353636
11.5453105959
10.3025573869
1241.09358971
13.1041797536
33.9348686293
14.5726873361
37.8345969533
19543.8308994
19541.0420379
17818.321184
17797.047966
19541.880743
17853.6333583
19543.1709657
19544.4310768
19540.7643325
17799.5246586
17884.6240373
19541.627769
19544.5058782
17870.3010272
19528.664514
19536.0684724
17487.7521815
17667.7003304
19536.8388484
17492.5400953
19527.5006521
19518.5119113
19505.6322155
17255.0463346
17041.0847141
19506.7375446
17269.0448236
19517.0911708
19527.7254266
19535.5068769
17666.8009088
17468.9967348
19536.1997412
19526.859041
17490.939431
19517.8418034
19506.3446718
17058.116034
17252.5735876
19506.8947229
19516.8130595
17276.7776441
19488.8919932
19494.8949172
16648.5936272
16843.5298521
19495.6294253
16670.3032816
19487.2775335
19484.4321295
19485.2746938
16663.7615955
16723.6319159
19487.2830698
16692.8482922
19482.4710019
19492.0607045
19497.7754659
16874.092863
16748.1713748
19497.3338231
19493.8779184
16708.1158434
19488.4051732
19491.8671448
16778.772912
16781.2589937
19490.2252826
19490.4017061
16743.4026441
19498.8258849
19489.7527767
16824.6201037
16771.9261927
19491.6633436
16857.5806919
19497.0869819
19506.9328655
19516.1017709
16931.3296742
17064.8529532
19516.6089649
16960.7873113
19506.4085529
19499.7104284
19495.4355189
16816.1663678
16901.3724671
19493.9091393
19500.7845642
16880.0472037
19507.6521675
19516.0121693
17075.1434434
16979.8520466
19517.0707475
19507.5910335
16971.8417847
19526.3245465
19522.8473261
17109.5138886
17110.3601277
19523.2798186
17133.8857593
19525.5261136
19528.1633481
19529.3566342
17149.5837214
17207.6917422
19529.9735141
17164.4141138
19527.3780702
19527.0712946
19523.4591781
17115.8069286
17140.0886741
19523.6984365
19527.506137
17135.684892
19529.409011
19531.8885826
17205.996823
17172.4546303
19531.8380593
19529.7189062
17163.8007381
19531.7589762
19530.8576899
17245.2893987
17237.2314484
19531.5002882
17244.213165
19531.0266004
19530.4008705
19525.967185
17259.1888939
17269.7396451
19526.9493085
17248.6439599
19528.9691197
19534.055402
19533.4843162
17240.3046354
17242.0473677
19533.6799676
19533.9031133
17240.5382022
19532.9683812
19529.3389638
17249.1540334
17236.7953529
19529.581451
19532.7647198
17241.5617993
19524.4307958
19525.5792933
17303.0995233
17287.234628
19525.0934528
17282.7032521
19525.6051081
19523.8194905
19524.3452764
17248.3889495
17148.0073268
19522.6007626
17233.5447006
19525.3620004
19523.0845441
19524.934871
17268.7986509
17247.3024616
19525.4945436
19521.890776
17275.2022899
19521.6544687
19514.8825402
17143.6448079
17204.7960613
19519.0160734
19518.9715906
17226.8910688
19521.3127449
19524.0695973
16988.1185885
17065.8592701
19521.7308103
16996.356383
19524.7757563
19522.6945009
19525.7270344
16986.21675
16991.7944382
19521.8326396
16985.117034
19526.8146261
19514.5770696
19510.3966229
17064.3554048
16993.3462339
19515.9963862
19508.342642
16997.5639923
19513.7381061
19505.4260344
16931.878959
16939.5393377
19511.1319534
19506.9574573
16946.1331918
19505.9495387
19520.8086169
17068.2564146
17097.6332874
19516.8311012
17051.4909708
19509.7925472
19475.6190171
19490.041459
16546.2261841
16783.6680821
16544.1036188
19495.8866899
19476.9711924
19492.4043384
19500.5611429
17023.5904737
16977.0444327
19505.0277358
19489.6782353
16981.7578032
19461.9281509
19497.3701832
16839.5228796
16513.2147114
19461.8349023
16485.4791062
19493.116403
19559.2230973
19561.2857983
18363.6488794
18426.9600029
19558.4571595
18381.2475417
19560.9922283
19556.5808289
19552.610418
18305.4538119
18271.8051573
19555.5628792
19554.5014382
18334.4117141
19559.0040606
19561.128191
18441.3847605
18424.1734581
19560.1287458
18398.2697214
19560.4145495
19557.5590057
19557.2817804
18294.6530082
18381.6911801
19555.6952136
19558.8647787
18353.1627246
19547.1552449
19549.5109545
18028.1047031
18175.4704615
19545.7252346
19551.4370307
18067.5496658
19542.1531436
19536.4070106
17894.410232
17781.6797794
19541.4007096
19535.5257088
17936.2722225
19547.9838161
19554.5956056
18202.0381013
18130.4011482
19552.5179976
19550.2288159
18096.7589918
19541.7471306
19535.1186071
17784.3873297
17963.0874592
19534.2736499
19543.7324224
17953.419303
19518.9671789
19530.352064
17446.2393576
17591.6606668
19521.5080704
19527.7221379
17405.3697987
19510.4399113
19501.8829012
17251.4303285
17068.3235185
19511.7617818
19501.1572828
17233.6639872
19517.1143698
19526.1270844
17584.7047102
17361.0318289
19525.9518527
19516.4233617
17390.7806161
19509.1229207
19500.4916603
17063.1591556
17182.3507304
19501.0069084
19508.0059156
17223.8284516
19492.9099254
19494.1924651
16802.435096
16940.3051332
19492.0732336
19494.4738289
16822.37074
19492.6384563
19492.1624078
16831.947014
16886.3949074
19491.146664
19493.688481
16858.9436996
19495.4045404
19496.1771515
16956.5554617
16882.4312373
19495.5748525
19496.6721494
16858.0162749
19496.1554609
19500.2865254
16919.9763272
16903.2849123
19498.225956
19497.6651132
16886.2433916
19500.3202943
19495.086556
16913.2700195
16903.5139866
19499.3518775
19496.3413388
16931.1233211
19505.441526
19512.7102941
16975.4934126
17067.0704523
19505.1444919
19511.6654116
16981.9436521
19504.6712486
19504.0087023
16939.5521572
16998.5088758
19501.3622862
19507.5375748
16963.9888741
19508.6629053
19514.1248641
17079.2648509
17037.3438461
19513.0429228
19510.5286819
17005.6303884
19521.9091187
19519.6650222
17134.8012758
17115.3485028
19523.7297536
19517.6241356
17141.6443891
19524.5164212
19528.2010639
17170.2943353
17212.4778863
19526.1448537
19526.4360715
17170.4661542
19520.7198891
19517.4463891
17123.7089759
17174.2483574
19517.2891331
19520.7631903
17145.1333245
19522.764683
19524.0726437
17206.666051
17195.0963451
19524.30554
19522.651528
17169.0666393
19528.8674705
19529.6592584
17240.9478726
17249.4179868
19530.1375928
19528.3100295
17249.4236869
19528.7280863
19527.1342873
17233.168319
17236.5924058
19529.4303504
19527.4735279
17243.6018841
19527.4798154
19525.8099591
17244.8196298
17268.9364236
19526.0594891
19528.0246566
17254.593758
19527.8554829
19528.7507171
17240.4333588
17268.2689193
19527.6822679
19528.7314195
17249.2128745
19520.5758799
19524.6450928
17250.4624998
17245.1512559
19521.0200612
19524.6859617
17233.5863483
19515.7262033
19508.4007518
17204.7007135
17113.6812556
19515.9052754
19508.8687721
17179.6338625
19523.7256103
19527.2223516
17226.6036786
17180.2789979
19526.3297445
19524.0708968
17201.7864393
19520.038672
19514.7368386
17089.9373559
17113.9608972
19514.4326977
19520.0727774
17148.2905837
19496.1042127
19501.8292783
16978.3653312
17046.881386
19497.6412302
19501.5952914
16982.3874453
19493.4304703
19494.7481194
16917.4573472
16908.6298015
19495.5673779
19492.5576021
16923.8864983
19502.7161276
19509.0448401
17037.566819
16965.4245782
19508.0551696
19504.3652178
16985.2427558
19499.7503759
19501.0546502
16940.2816112
16936.7072488
19498.9801
19501.9795208
16944.244204
19483.9885563
19492.0596457
16994.3026274
17011.0368598
19485.0321049
19490.4739469
17009.0198499
19466.0064321
19502.8008569
16551.738413
16953.8154509
19465.7740641
16580.3038537
19504.3561033
19490.7775978
19499.045081
17037.4315887
17046.0091444
19497.0660764
19492.7148576
17033.4282852
19474.2568382
19512.4239016
16966.7652823
16616.9071643
19477.5329326
16598.4965915
19510.0684619
19563.6306825
19562.9273378
18454.5937859
18513.9242808
19562.1170314
18484.7677068
19563.9420194
19562.8494948
19559.8961814
18403.2734529
18380.9776694
19561.1927316
19561.7500118
18438.4276015
19564.7506468
19564.6190926
18515.8036987
18501.743399
19565.1995779
18507.4414209
19564.8078251
19564.3003999
19564.4021314
18416.2366644
18483.2714542
19563.1055987
19565.2893623
18474.2209031
19553.8240653
19557.1443476
18135.2225161
18278.6182363
19552.3315657
19558.9612535
18146.0255822
19546.1344678
19535.4891441
17959.7223303
17728.9885065
19544.9236508
19536.0419558
17956.4473007
19554.2522252
19561.2947941
18297.7446082
18159.2829904
19559.9050592
19555.2279642
18146.5616386
19546.2010887
19535.0007856
17699.0118032
17920.3905793
19535.7707847
19546.2365672
17937.835108
19514.6140342
19525.7502481
17319.9603309
17485.0855383
19515.6595551
19525.033787
17268.8227378
19507.0120344
19501.7648188
17151.3259387
16996.8077338
19507.6649668
19502.1024673
17118.2509526
19513.7539584
19523.7528973
17448.6249215
17185.9800005
19524.5943344
19512.6530127
17227.2364669
19505.8250131
19502.5865345
16992.8974801
17062.4632364
19501.4781062
19505.6955539
17091.8450195
19502.0952404
19499.0829201
16909.7428189
16947.8307002
19500.5088421
19500.6661474
16933.1026516
19503.815954
19504.4377731
16928.3952824
17007.9031783
19501.4797674
19506.7796141
16955.3261395
19502.9944234
19502.107636
16964.7416379
16987.4292347
19501.193131
19504.1983358
16968.6790373
19506.2401879
19511.0818202
17034.6289947
17011.800807
19509.8258143
19507.4281752
16988.5239909