/*--------------------------------*- C++ -*----------------------------------*\
| =========                 |                                                 |
| \\      /  F ield         | OpenFOAM: The Open Source CFD Toolbox           |
|  \\    /   O peration     | Version:  v1906                                 |
|   \\  /    A nd           | Web:      www.OpenFOAM.com                      |
|    \\/     M anipulation  |                                                 |
\*---------------------------------------------------------------------------*/
FoamFile
{
    version     2.0;
    format      ascii;
    class       surfaceScalarField;
    location    "8";
    object      phi;
}
// * * * * * * * * * * * * * * * * * * * * * * * * * * * * * * * * * * * * * //

dimensions      [0 3 -1 0 0 0 0];
oriented        oriented;


internalField   nonuniform List<scalar> 
92311
(
0.203881384654
-1.36796998153e-05
-0.000871328562186
-0.203716084163
0.000719707274196
6.85908198693e-05
0.203842872745
-0.000375043217875
0.00034515182476
0.203954506081
0.000121569185569
-0.000918354043244
-0.203919102014
0.000747924436568
0.000265130225849
0.203803164876
-0.000427330414122
0.000382355483533
0.204172698595
8.34863292457e-05
0.000192346871241
-0.00109888747708
-0.204477328349
0.000846270208273
0.0001398719287
0.000263254093639
0.000202554725476
0.000194932189168
0.000254422657034
0.203573501946
-0.000476038311104
0.000417675558515
0.000270812584904
0.0513010296834
1.42899516476e-05
7.50767757046e-05
3.40699452958e-05
5.41200299794e-05
-0.000466467140601
-0.0513633785848
0.000434693164195
-0.0511533954841
0.0510047734559
9.64167633988e-05
7.30227385441e-05
9.80978413188e-05
7.46653721605e-05
-0.000277166318559
0.000286171895113
-7.08841165443e-05
-0.0120008580315
-9.15441087123e-05
-9.81667213648e-05
-0.000136905782939
0.00814327180573
0.0127646356454
-0.0025554777276
-0.00595382172132
-0.00598500675354
-0.0058675102466
-0.00184193375468
0.00626777723033
-3.05237432023e-05
-5.32290988069e-05
-5.02361211782e-05
-8.00797564933e-05
0.0076406695808
-0.132563669636
-0.00300083905471
-0.00576591018775
-0.0012130109227
-0.0814990272081
0.0925302557331
-0.00519673924818
0.00124691440603
8.9186231248e-05
8.72257798528e-05
0.000111990727275
6.52576908e-05
-0.000367711007398
0.000353949712015
-2.28099694035e-05
0.0121250755902
-2.09608541784e-05
1.5495946798e-05
-0.0121678085217
0.0120708180267
0.000120566970627
-0.000107206340413
-0.012088056486
-5.49433125348e-05
5.88905661025e-05
0.000181863419197
6.38200838479e-05
0.0509390764371
4.54938408789e-05
7.46179317373e-05
5.34842574371e-05
-0.000158637241655
8.1402614514e-05
0.0508499535734
0.000100566930089
9.06476440975e-05
0.000107991150494
-0.0509270505467
0.000132846894995
0.000115401321067
-9.07923287534e-05
0.0120404606814
-7.06239295837e-05
7.62358955734e-05
6.95225512032e-05
0.0126736086669
-7.28820821064e-05
7.10787463282e-05
-0.0126774856895
0.0126598535974
6.94032697475e-05
8.79981653719e-05
-0.0126663110022
-0.000387736352458
0.204145829702
-0.001688420766
0.00143830002265
-0.203507973062
0.203790803169
3.20117124554e-05
0.000202943582988
-0.000182314324086
-7.7293658709e-05
0.20384072234
0.000379006470463
-0.000351177527818
-0.000808594155971
0.204320860169
-0.00167900958676
0.00152861353764
-0.203749491205
0.20375940383
0.000131760367851
9.48075552324e-05
-0.000150235889748
-0.000133085714482
0.203846704377
0.000354690904696
-0.000385748217176
-0.000493733704387
-0.000362168033003
-0.000299349738845
-0.00182242938146
0.204969396462
0.00178337794059
-0.204120903721
-0.000462789980645
5.73705748727e-05
-3.52217673735e-05
0.000124768354162
3.3696363709e-06
0.203589233482
0.000103114914341
-0.000136971748963
0.0514587901771
-0.000199629003823
-0.000220673614992
-0.000206934197143
-0.00021434092456
-0.000527181330118
-0.0511644964627
0.00058071705703
0.0508831349614
0.000135362942158
4.31599874259e-05
2.59873902494e-05
1.92886159375e-05
4.94945541812e-06
-0.00011533065189
-0.0058947740958
0.00100601236536
-0.00651210687435
2.26349119652e-05
9.47996685555e-06
3.00415769799e-05
2.46592751247e-05
0.00532903464656
-0.00605595969447
-0.00736193405824
-0.00646968410832
-0.118035618256
0.0572867324248
0.0908204958888
-0.0737112389287
-0.00697963593911
0.00630576806658
0.00344963911627
0.00527319869207
0.00347393288049
-0.0553860013615
0.0157381540885
-0.000619094561554
0.000479136740818
-0.000140028256573
-0.000106685343551
-0.000141846714493
-0.000105727801859
0.05150106493
-0.0003891218925
-0.000108446145471
-6.63375371737e-05
-0.000116473707369
-8.15405121242e-05
0.0514161645773
0.00050835581908
-0.0513718291329
-0.000272382593469
0.000297343618655
0.012139009222
4.77102060438e-05
-8.3529767488e-05
-0.012128192501
-8.95615033283e-05
0.00011140774323
-0.0121544835681
3.76826019448e-05
-6.40108770212e-05
0.012159006065
-0.00012667084532
0.0128923521073
-0.000160282411231
0.000165656331069
-0.0128795191548
5.35627284092e-05
4.76176962628e-06
-2.86681629946e-05
-9.35408907812e-06
-1.8880644693e-05
0.0508919106418
-4.53309978298e-05
0.0507898038513
5.71739382206e-05
5.32260839946e-05
7.6134411728e-05
3.29323685713e-05
0.000100981201677
3.65940172897e-05
-1.96396864551e-06
1.62686249742e-05
-1.34005816767e-05
0.0507832352008
2.62532164855e-05
5.38326185594e-05
-5.57599223457e-05
5.18516680087e-05
0.0126668989579
-6.69605130039e-05
2.94031956322e-05
-0.0120377628561
-0.000149053056233
0.012054678562
0.000169633849391
5.6278951999e-05
6.54857481728e-05
0.0126491961166
-0.0126329381704
4.20835723149e-05
0.0126337764792
-2.42648101329e-05
1.7928660426e-05
-0.00821133934815
-0.000114911604795
-0.000180043531198
-0.000174118472962
0.0104582709814
-0.00697909539937
-0.00667960301546
-0.00451502996183
-7.15955028029e-05
-9.64141905045e-05
-0.000108530037487
-8.89445514517e-05
0.00350695194511
-0.00386658087675
-0.00062765272885
-0.00273522733827
-0.0151389454273
0.00911046871917
0.00124659638622
0.0100630429133
-0.0149035905092
-0.00549781524585
-0.00466301006391
-0.000106522629828
-0.00016943781858
-0.000149691354173
0.00983602051479
-0.00657570054185
-0.00690713418339
0.00776812933469
0.0033276747864
0.000149271291272
0.0128516685108
-0.000141864667547
-0.0128678340355
-0.0128442304077
0.00012642870496
-0.00014441305722
0.0128121067666
0.00012515172655
-2.58266776644e-05
-8.01430441481e-05
0.0121165722744
2.26476990007e-05
-6.85123239884e-05
0.0121099448924
-0.0121489837273
-1.18062179117e-05
-0.0128640335053
0.000134374975864
0.012100704318
-2.73609635898e-05
0.0128220747342
-0.000141148948144
0.012777637539
0.000141830032555
-0.000133244754705
0.000114996760361
0.000117230078751
-0.0127885282238
0.0127588732974
-0.000107637077109
-4.29376693655e-05
-9.07045143777e-05
4.72707575352e-05
-0.000159832442177
-0.0120701178286
0.0120537169646
-5.86950857456e-05
0.0127452963732
0.000101499981203
-4.47149231582e-05
-0.000125465487189
-0.0127161807555
0.000124278641117
-8.99860660309e-05
0.0126961842408
8.21274469811e-05
0.000109582783654
0.0127293379542
-9.78618678168e-05
-8.92152137589e-05
-8.33928916878e-05
0.0120088310058
9.77193196242e-05
-0.000139341676041
0.0120213036345
-6.84293905596e-05
9.75085563702e-05
0.0119886893653
-8.20594116945e-05
0.012707636176
-7.70131215257e-05
3.72513988758e-05
-0.0126883978979
0.0126851061664
-6.13090549763e-05
-0.000118610985439
-0.0120028678587
0.0119866837123
0.000141560568734
-0.0119905185057
-8.90945251672e-05
0.0119788965257
0.00010010340024
-7.8728880679e-05
7.20562498452e-05
-0.000104044664488
-6.16063973288e-05
0.000121433501524
-8.58118980716e-05
-6.76266736538e-05
0.000124539309056
-0.0126601153249
0.0126506450198
5.49258115828e-05
-6.72091786284e-05
-0.0119868842115
0.0119814073871
-0.0119835885098
0.0119799761645
-3.54162430355e-05
7.16871233769e-05
0.000111071016464
-0.0126863583908
-0.000141817917154
6.51442623727e-05
-0.0119809306532
-3.44945839308e-05
-0.0126790426998
5.67872039054e-05
-0.0119853194413
0.00245015972991
0.00321942402677
0.000131640716322
6.75953132207e-05
8.13819729201e-05
0.00013633746426
-0.0135687833248
0.0121180186915
-0.00463532443688
-0.0131027862187
-0.00256283527415
0.0120570998288
1.09192764377e-05
-0.013200790844
0.00367724945028
0.000241053908096
0.00025921950372
0.000221436934494
0.00197161640028
-0.00177719810662
0.00833602420168
0.00374260280554
0.000152755215566
9.34955823126e-05
0.000140781578204
-0.0168669589399
0.00266724078351
-0.00345620221605
-0.0111464733904
0.000216854282137
0.0107046179372
-0.0134048872022
-0.00587817616174
-0.00152666928371
0.00450548030206
-2.41044791057e-05
-6.01222523576e-05
-4.0644683024e-05
3.62298380771e-06
-0.00524537389274
0.00101885913005
-0.0148537137696
0.00347296978768
-0.0119446111241
0.00252206862007
0.000233551038208
0.00626644861149
1.64669945244e-05
4.98158659457e-05
5.62567482164e-05
3.43774896895e-05
0.00354086287223
-0.00569198509066
0.00139096785108
-0.0135726093836
0.0028321081654
0.00115969245116
5.31352056373e-05
7.02261399804e-05
4.85333065012e-05
-0.00589841316986
0.00425462241942
-0.00884041606668
0.00292959147793
-0.000137793887359
-0.012865791984
-0.000242085190457
0.0128914953227
0.000154600405345
0.0128803460013
0.000147984095985
-0.000133139045939
-0.0128183620807
0.000251220591905
4.75049133302e-05
0.0121576346749
-7.62611123479e-05
0.000285278559138
0.0121287171066
-0.0121168405921
9.77833926423e-06
0.0129059517819
-0.000118827084356
-0.0128076035003
0.000160989086474
0.0121454871433
1.04484806798e-05
-0.00012122151002
0.0129096250201
-0.000179365830499
0.000142462956342
-0.0129242293646
0.000113457967729
-9.31472580425e-05
0.0129086996018
0.000182833237354
3.71657533709e-05
-6.41612769329e-05
0.000113140061375
-0.0121388451347
1.02756201283e-05
0.0121465578866
-9.84885265914e-05
0.000136306507768
0.0128944487586
5.51092889186e-06
0.012143998974
8.36749630613e-06
-6.20370436928e-06
-0.0121413991981
5.35803220985e-05
4.37628975131e-06
0.012159800456
-6.07343854217e-06
-0.000153570694187
0.0128750004505
0.000158270897683
0.0129014662171
-0.000150235022277
-0.0128853673646
8.21724387252e-05
-0.0121469854071
0.0121604671397
0.0128848558023
-0.0121468931192
2.46234293885e-05
0.0126794945185
-4.86865057893e-05
-0.00013290800372
0.0120095848552
0.000157222818585
0.0120028021626
-9.55055745533e-05
-4.49690637008e-05
2.10574073805e-05
0.0126695122855
4.06679653629e-05
-3.51431097705e-06
-0.000137691455254
0.0120141637726
0.000166639317425
0.0126822600994
-4.61325822838e-05
0.0120101983308
-9.93559542755e-05
-2.97385303017e-05
0.012670282293
1.21793887861e-05
2.16511948005e-05
-0.0126843182889
1.86043910778e-05
0.0126899899757
-2.34756888976e-05
5.20976480792e-06
-0.000147960685788
0.000172327011702
1.42585893913e-05
-0.0120329251259
-0.00011351198425
0.0120533110274
-3.58095030532e-05
1.05056634325e-05
0.0126738848325
-0.000109975106563
-0.0126351590561
6.6782695969e-05
-4.68463313524e-05
3.55554842386e-05
0.000105665226811
4.22786251517e-05
-7.40463540923e-05
0.0120013443832
0.011997620381
-4.61211013682e-05
7.55496749909e-05
0.0119978103792
-4.95995177687e-05
2.57708447875e-05
0.0126502456414
0.0120070269332
0.0120294170261
8.83755974332e-05
-6.146916799e-05
-4.49656139663e-06
9.70435674349e-05
0.0120551044904
-6.85156014256e-05
-9.02019861972e-06
0.0126348466286
1.59118481981e-06
0.0126488484823
1.51375500419e-05
1.93029257909e-05
-0.0120350037819
0.0120555309264
0.0126562290173
-0.000121276133244
-0.000105289339999
-0.000183949652266
0.000531611863513
0.204010571016
-0.000171177555683
-0.000504077201476
-5.00040111758e-05
-3.8030401593e-05
-3.26667395441e-05
-4.47672031976e-05
-2.37691233123e-05
3.41132571413e-05
0.0509258689723
6.79104332055e-05
-0.00632311120996
0.00198074838734
6.06271771917e-05
6.15114286018e-05
5.84007940004e-05
0.00371273846565
-0.00551747238295
0.00437241340175
0.006472319976
0.00529949947057
0.0564093973418
-0.0173337235741
0.00507244948553
0.00461785868877
-7.71402263026e-07
-4.06174312617e-05
-5.4066120811e-05
1.80938006024e-05
5.53380223782e-05
-0.000411577482894
0.051383184348
2.17835051851e-05
2.35515150226e-05
4.96220072393e-06
0.012125047105
0.0508279291265
-4.60387634512e-05
-1.8265493289e-05
-2.57834470125e-05
-4.46353242528e-05
-6.53008125531e-05
0.0508670807563
-4.62244807754e-05
-6.92801585536e-05
-5.69734499423e-05
-5.30619287438e-05
0.000163067503063
-0.000160618008073
3.37527200697e-05
0.0120720695471
-0.000148640710089
0.000165422091049
-7.57700897167e-05
2.31920440804e-05
0.000110990989648
0.0120839213807
-8.70278906283e-05
0.0121012210139
-8.91094003668e-05
8.861409493e-05
0.000111085127537
-0.0121003063387
-0.000111587845153
0.05091926976
-5.10696700018e-05
-6.37007294206e-05
-5.23323458035e-05
-6.59961453056e-05
0.000164079093613
0.000210033239893
-0.000193357125975
-4.37291517088e-05
-4.98088688071e-05
-4.31594456174e-05
-5.60679329619e-05
9.37150225574e-05
0.000251494664433
0.0509767705513
-0.000210103764447
-7.38028606661e-05
9.04485324679e-05
0.000115954949834
0.0120926291281
-0.000123797360064
-3.13586788572e-05
6.31314781382e-05
0.000135582324926
-0.0120667817197
0.0120512412192
-0.000151790706476
1.77369300372e-05
-5.19008886496e-05
-2.38592605743e-05
0.0072829223979
-0.0141158924238
0.00148681144701
0.00189459481277
0.00107901597541
6.10543076193e-05
8.51973583923e-05
6.31039628085e-05
-0.00604131877934
0.00150089067068
0.000492690094218
6.9361250584e-05
9.06254124231e-05
6.7606277696e-05
0.00621271145144
-0.00662847442253
-0.000662291037094
0.00359362406816
-0.00541713552742
-0.00828436442911
0.00157749024698
0.00276100518977
-0.00434013439877
7.07660250664e-05
-0.00178746133798
5.82910200794e-05
5.50720393424e-05
4.57787214251e-05
0.00555647406868
0.00191845926545
-0.00542798917898
2.62486637752e-05
3.8462485569e-05
2.77760865664e-05
0.00315679230214
0.00228821675502
-0.00435817782415
-0.00299797359789
-0.0128650130893
-1.61240781118e-06
0.000131406307598
-0.000107888424158
0.0128423159708
-0.00013806697984
0.0128539342893
5.36714884665e-05
0.0121415713645
-1.21594288092e-05
8.40314146583e-06
-3.21170644906e-05
0.0121195034542
-0.000119007316129
-1.37652150761e-05
0.0121383969486
0.0128298889845
1.4321766959e-05
-0.0126814097812
-3.32249818847e-05
-2.5191888025e-05
0.0126874755472
0.0126999856854
2.96315130387e-06
-1.17797054491e-05
3.82057112869e-05
-0.000142900129718
0.000160025505175
0.0120774292528
1.98837730356e-05
0.0120693815511
-0.000123011821692
3.21562450624e-06
0.0127045878038
-8.40884295803e-06
-0.000120980904439
0.0120726062932
-0.0126612695372
-4.87529281285e-05
-2.93941094109e-05
0.0126682035354
1.08978506581e-05
0.0126416684775
-1.27666047844e-05
2.84096212783e-05
0.012076257005
0.000112762358283
5.80969986936e-05
0.0120941026195
-9.58190930477e-05
0.0120825023705
0.0126548024465
-2.91342070478e-05
0.0126812864875
-5.83958942948e-05
-4.33350418534e-05
4.23843711822e-05
5.37748471372e-05
-0.0126720534889
0.0126851566809
-4.75455998674e-05
6.87028275261e-05
-0.0120870270118
0.01208850794
0.000110310857531
0.000111394805515
7.43863066779e-05
-0.000101366636457
0.0126908111252
5.59458066153e-05
0.000116099185047
-3.93490708392e-05
-0.0127041544287
-5.97300784799e-05
-6.0717850618e-05
0.0127059862768
6.75482902717e-05
6.08254924739e-05
0.0127046216686
-5.35671488588e-05
6.93349426463e-05
0.0120869790217
0.000106498611524
0.000118849777917
7.65483938586e-05
0.0120857679717
-0.000133115138061
6.45041380405e-05
0.012087174769
0.000104801490759
0.0127065705758
-5.21631886067e-05
0.0127119961821
-5.93112651361e-05
-5.89386839478e-05
6.84971030392e-05
5.74458101281e-05
-0.0127153206391
0.012718679587
-4.74759121212e-05
5.86315835506e-05
-0.0120742658343
0.00011624015886
0.0120612939367
0.000125931573481
7.31492900918e-05
-0.000141636723389
6.9594099772e-05
0.0127153458855
0.000107404528509
-5.06632526906e-05
-0.000582830846577
-0.0494756596917
0.0493186412013
0.00066436395949
5.93975512309e-05
5.90564298624e-05
6.62218706384e-05
5.23930329148e-05
-0.000161497783973
-0.000669214248098
0.0498593593116
4.76422909748e-06
2.75420486063e-06
2.52023047948e-06
1.00499543249e-06
2.03370054997e-05
-0.0498459250634
0.000624286103466
-0.00106021116281
-0.0499624334545
0.0500655245358
0.000885549825648
-2.65404972813e-06
-1.06639859417e-05
-8.24903890071e-06
-5.50216084288e-06
9.86390756682e-05
-0.000709492377348
-1.30066232438e-05
-7.19611575895e-06
-3.64174334694e-06
-1.26523577086e-05
0.000131811810849
0.0501835011124
0.000573982283733
-0.0501433070116
-6.02704186816e-05
-0.00394133436388
-0.01047387101
0.0156087975568
0.00679800783297
-0.00778860022596
-5.82542171673e-05
-4.4912853337e-05
-4.58222294039e-05
-5.28494472942e-05
-0.0205090104372
0.0228353086643
0.00822458249088
-0.00432215663621
-4.88342083546e-05
-3.59461882829e-05
-2.07068665946e-05
-0.00605821276939
-1.39690844513e-05
-0.00477052629728
0.015570076221
-0.0017558296732
-9.72554279155e-06
-7.13410776088e-06
-7.75760066651e-06
-0.0110754255149
0.00207003310612
-2.0902398364e-05
-0.00599667807307
-0.0214992357804
0.0268600468975
0.00346528892885
-0.00274060073028
-2.18130664213e-05
-2.16418447643e-05
-2.45375473341e-05
-1.5364186535e-05
-0.00285291258893
-2.34950875063e-05
-1.75189956338e-05
-1.7249846639e-05
0.0250400918296
0.00193619393322
-0.00306437047879
-0.0209854942767
0.0799896463251
-0.00831110864294
0.0158067976471
0.0177081651924
0.0141401625226
0.0153986058363
-0.00621733257593
-0.044821149735
-0.0324995991341
0.00241824657388
-0.00630401215766
7.5116266648e-05
-0.00641086317849
0.0162149168777
-0.00846924867903
0.0717203762523
-0.0105574159153
0.011492933086
0.0111857868377
0.00718815452678
0.00728738493725
-0.0347400815062
-0.0333577192819
0.00255488554574
-0.0022420334151
0.00148032425064
-0.00384893534325
0.0708332461525
0.0559747345009
0.00628514207046
0.00735621774211
0.00872109634006
-0.028727941294
-0.00614842896666
0.00823774651623
0.00438873971371
0.00150745764188
0.0055964561396
0.00331141565972
0.0562007094387
-0.0132747788678
0.000215761599966
6.30361920331e-05
6.26905154565e-05
6.66401976001e-05
5.92868116236e-05
0.0491866468123
-4.82993627988e-05
-8.32869302202e-05
-0.0495224851152
0.0491540155665
0.000377385639184
6.56791088056e-05
7.31755394533e-05
7.07353722343e-05
6.24377886794e-05
-6.15087945804e-05
-0.0495261832494
4.28424591944e-05
-7.65196590575e-05
-0.0122110314178
1.23965224366e-05
0.0122205465604
1.19656108986e-05
0.0122382003498
6.77866129294e-05
4.51461737687e-05
-8.20452198663e-05
-4.86950315338e-05
-0.0122201390113
8.84036709117e-05
7.53191207891e-05
8.83422153305e-05
8.86177386548e-05
-0.000344626629235
0.0122762940186
0.0122069420015
0.0121737716064
0.0121556292853
-0.000237576599109
7.83630258444e-05
5.71518531353e-05
-7.53057101613e-05
-5.51760458197e-05
0.0122330046322
0.000461244906904
5.10909191106e-05
6.72477954897e-05
5.92909532331e-05
6.199309249e-05
-0.000126121460273
-0.0496730888136
0.0496501399856
3.64290071205e-05
3.70191822087e-05
4.36984949914e-05
3.09765692367e-05
-0.000110254347693
-0.0497560581206
0.000529255451646
0.0122482944874
4.44517042898e-05
-7.96455128988e-05
-0.0122251747685
7.97701573204e-05
0.0122803729221
1.64657372302e-05
-3.70062083042e-05
-9.28178715017e-05
-0.0122569919323
9.00928580239e-05
0.00092188161432
5.93304635561e-05
7.09839032206e-05
7.04232292939e-05
5.96374008418e-05
0.0491668380951
-0.0002071424918
-0.000171522995443
-0.000198387929848
-0.000162843900275
-8.77576812568e-05
-6.44390488904e-05
-7.44469043819e-05
-6.39412137201e-05
0.0495707368519
2.95087052992e-05
2.14596265478e-05
2.96653604257e-05
2.14182897669e-05
-2.74882303262e-05
0.0496703705587
0.000856399763782
2.07595708912e-05
1.34421097537e-05
1.66119644061e-05
1.2249902156e-05
-9.73007538721e-05
-7.46171549161e-05
0.0122468963169
9.43174654569e-05
0.0122131828053
6.62444568442e-05
-6.1567270486e-05
-0.0122299139708
0.000143562510559
-0.000131491051095
0.000103517118275
1.95858069509e-05
-2.15834674702e-05
-0.000106592645383
0.0122854237799
0.0122882007795
0.000124339992995
1.24175072628e-05
-4.74919019913e-07
-0.000135126813029
-0.0122893654812
0.0498226255577
5.66142718846e-06
3.88582171832e-06
4.4997552598e-06
7.23083263975e-06
-0.00115864823609
-7.52977262239e-05
0.00123760204163
-8.08150900543e-06
-6.24567685412e-06
-5.53831534343e-06
-5.92928966146e-06
0.0503532894155
-0.000170657271364
-0.00157216848732
-5.23560447527e-05
0.0122080509874
0.000167985008084
-0.000163441301792
1.13914841829e-05
-3.51399230085e-05
-0.0122407808806
0.000233608260259
0.0122802390522
-0.000249070059765
0.000129695123481
1.79873357747e-05
4.0991460419e-06
-0.000145140756463
0.0122816101076
0.000146192312404
-1.62332379561e-05
3.42923925726e-05
-0.000171796654758
-0.0122761110016
0.0122835730602
0.000744088062129
1.27969065834e-06
2.61196345989e-06
-4.48776967167e-07
7.11590437913e-06
-1.31706901973e-06
0.0500835669539
5.9513800915e-07
5.51874828158e-06
6.21958799876e-06
9.98102907996e-07
2.0136079601e-05
-0.0500066636254
0.00063369507104
-7.76719088693e-06
0.0122951814078
9.56863383125e-05
-0.012293462334
0.0122936894827
1.77739459238e-05
-2.34487162481e-06
-0.0122975331841
0.000112919379432
0.0123139430014
2.4181390659e-05
-1.73679240506e-05
-0.00010212783822
-0.0123176993229
9.90896277055e-05
0.00097044507225
-1.21213385993e-05
-2.24263967289e-05
-1.89312275963e-05
-1.51047336235e-05
0.0503025172457
9.86953747162e-05
0.0501562262233
9.73541772032e-07
-2.53755792542e-06
-9.64100314614e-07
8.29779476246e-07
0.000105021432982
-7.32997675358e-06
-9.88302764377e-06
-5.03314738868e-06
-1.30068081487e-05
0.0502889080906
0.000742949738521
0.000130052011344
-2.97697085403e-06
0.0122902505128
0.000115199202154
-4.19872299379e-06
2.08092813012e-05
-0.0122809669225
0.000131439902658
0.0122791603523
0.000107677093105
2.65284293044e-05
-2.18001111083e-05
-0.000108180090075
0.0123096679962
0.000126625626093
2.4375552149e-05
-1.66952761358e-05
-0.000124527809582
-0.0122984677576
0.0122886783331
-1.44418472118e-05
0.0123152561972
0.0001116683172
-0.0123201862087
-1.2392900588e-05
-0.0122989148292
0.0122861360088
2.12349472773e-05
0.000130548485303
-0.000944515950854
-3.97752058425e-05
-6.13533280532e-05
-5.30225683674e-05
0.012506658403
0.00495329292162
-0.00828725157893
-0.00803219747572
0.0128000860309
0.00261176085442
-5.41014257635e-05
-4.7150395188e-05
-4.36467006041e-05
-0.0084859626788
-0.0076823085399
-0.00922529410364
-8.41501136652e-05
-6.3648609895e-05
-7.79226048651e-05
0.000400321714348
0.0179668019874
0.0152833258193
-0.00226296242692
0.0107585829606
0.00270949927175
-0.0106862801953
-0.000558800326194
0.020269005369
0.0131468502886
0.000134227033634
0.0163753438882
-0.00254710582852
-0.0111911768024
0.0218946557334
-0.00126613740735
0.0105815098876
0.0130923590541
0.00031163675977
0.0119364149683
-0.00266476344692
0.0012446389355
0.00616512588314
0.00349962617468
-0.00409871756061
0.0157486583737
-0.0025805355868
0.00913269654574
-0.00100546430929
0.00968543944472
0.00189561213968
0.00477499508685
-5.43037963335e-05
-2.99072644507e-05
-2.25691584997e-05
-0.00627135605061
-0.00621596135678
0.00914018157938
-2.23400429639e-05
-2.21425875402e-05
-3.17176394532e-05
-0.00512683200727
-0.00293746048181
0.00379077120592
0.00852598915783
-0.00755022963208
-7.41632639203e-05
-4.51167355596e-05
-4.85292932156e-05
-0.00564790382209
0.014457293767
-0.00319684383304
-3.67578382006e-05
-1.1499161682e-05
-2.50195764462e-05
-0.00300764416522
0.0205289164229
0.00554582504615
-2.67254343387e-05
-1.35008538749e-05
-3.203888263e-05
0.0150971588644
-0.00295202412103
-0.0110073108685
-0.00186401087117
0.0192905179532
0.014456393183
-0.00290767861847
-0.0105269923141
0.0187666306288
-0.00188479344267
0.00603110009857
4.62257439526e-05
-1.96234441154e-05
6.68278621052e-07
-5.61598264798e-06
0.0210621112087
-0.00428221756853
0.0257107724585
-0.00287161772769
-2.78509917687e-05
-1.56739888263e-05
-2.34758584753e-05
0.00107370869617
0.00485668811566
9.60460425536e-06
1.74556608856e-06
2.04446436874e-06
0.0257820462464
0.0173834169434
-0.00245606070565
-0.00219889279718
0.0163640994368
0.0178881146935
-0.0029854886829
-0.00377942114177
0.0167014148591
0.00267962704817
-0.00300133788438
-7.11162680678e-06
-2.06481532528e-05
-1.65920421887e-05
-0.00448260373057
0.0221805127755
-2.41841876675e-05
-1.87804135841e-05
-1.9636178448e-05
-0.0173674418095
0.00243501173708
0.0127251741938
-0.00908994682543
-0.00203078952362
-0.00172479288497
0.0169225939814
0.0168454605624
-0.0124173696345
-0.00191204889953
0.00270596035326
0.000352452468938
-1.51592562888e-05
-8.26579807978e-06
-2.60671258517e-05
0.0287034231411
0.0267631374136
-0.00386154823938
-2.71670496899e-05
-2.75183066667e-05
-2.81224465669e-05
-0.00156170419729
-2.45025471198e-05
-3.2133375432e-05
-2.32296775782e-05
0.0290685382525
0.00206571345363
0.0180735387176
-0.0025054545405
-0.00271030585418
0.0188732457043
0.0186994811631
-0.00264062801463
0.0202626602871
-0.00252095790595
0.0124284313134
8.13147866446e-05
-4.37628530206e-05
5.2250137502e-05
-0.0124552238019
5.16830019822e-05
-0.0124212090538
0.01238789041
-3.22183479534e-05
1.02095366576e-05
-7.30810894268e-05
1.0297615712e-05
-0.0121981089521
-8.80045312474e-05
-0.0122126904015
2.96378627211e-05
0.0122219732021
6.42290722309e-05
0.0123943726368
2.45703478753e-05
-0.0121989189324
-2.81966922429e-05
-0.0124506698817
0.0124331314062
6.73852153932e-05
7.79364301407e-05
-0.0124606064043
-7.88787419574e-05
-0.0124394487559
0.0124167307301
9.27217864773e-05
-8.529664372e-05
-0.0122167576718
0.012228943378
-7.62023142645e-05
-4.26575009562e-05
5.83094032372e-05
-0.0122066852859
0.0124038572078
8.06284185346e-05
-0.0124665751982
-0.012200707857
-0.012376726216
0.000112278631846
9.0115803306e-05
-9.02140273826e-05
0.0123529539819
-8.91972669265e-05
0.0123944442856
0.000111441848771
-9.49696506626e-05
0.0122214652321
-3.7223366689e-05
-8.13963049449e-05
-6.59309312122e-05
9.18941782585e-05
0.0122244319156
-6.87623853142e-05
0.000135293041199
0.012378629507
-4.09676503784e-05
0.0122085786569
-8.33789486783e-05
0.0124733081526
6.06429790274e-05
9.043715787e-05
-0.012489936845
-0.0124574412096
9.93066121742e-05
0.0124383557542
-7.76322755224e-05
6.58653964477e-05
-0.0122094004672
-6.7611979944e-05
-0.0122373623438
9.41019324095e-05
0.0122606986653
-0.0124786559453
0.000108314540275
0.0124585653108
8.20472310627e-05
-0.0122155359352
0.0124886701711
9.65839997448e-05
4.54066331647e-05
-0.0125038670408
-0.000116116467596
-0.0125047808398
0.0124972126857
0.00012375296138
-4.68948655191e-05
-0.0122434548217
0.0122693417259
-3.44272684581e-05
-7.90083920601e-05
-0.0122424035033
7.65702038234e-05
0.0124776744988
-0.0125169439435
0.000105184104144
-0.0122269523639
-0.000142158075708
-0.012438920375
6.32934759086e-05
0.0124245448111
0.000152641779693
0.0124169183916
0.00011730808206
-7.70281670314e-05
0.00010871606391
0.0122491058436
-6.27212808236e-05
0.012262880421
0.000110076094314
0.0123992121201
0.00012654382455
0.0122672093207
0.000122035924697
-0.000167905366358
0.0124205593895
5.05710185452e-05
0.000180615088555
-0.0123900352905
0.000197987027223
0.0123859245049
-0.000184445447283
-6.92199699407e-05
0.000121686157384
-0.000107761452506
-3.95563066604e-05
-0.0122552379085
0.00015076391087
0.0122427117398
-0.00015761000793
0.00021322413368
0.0124254710956
0.00013541632794
-0.0124643013195
0.000158344482575
2.91777920532e-05
0.0124588716667
-0.000133113176263
0.0124885494357
0.000141643524337
-3.64560293628e-05
0.0122723471106
-1.30772863296e-05
-0.000118398732832
0.0122922951538
0.000113045929103
0.0124880090839
0.000167328076412
0.012279918204
0.0124591689472
0.000184187011574
1.69062160871e-05
-0.000215396163671
-0.0124910143058
0.0124997493533
0.000219617354083
-7.14480610017e-06
-0.0122733692689
0.0122691552391
-1.80622241159e-06
-0.000126855479566
0.000117858526762
0.0124664086994
0.000191602696395
-0.000257492042311
-0.0124344797625
2.34131089403e-05
0.0124551149124
0.000275349273525
-6.1981653746e-05
0.0123900441934
0.00022623718124
-7.15949813576e-05
-0.000211125514149
-5.52558408139e-05
0.000194022209532
0.0122163531168
-0.00019591172272
-2.73209111705e-05
0.0122343211825
0.000167659300437
0.0124124135306
-8.02507800009e-05
-0.000254859212004
0.000244530468104
-5.460172992e-05
0.0122420584598
0.000188607106407
-0.000287346756854
1.31741350378e-06
0.0125098515252
0.000306973069723
-7.56086603513e-05
-0.0124774547765
0.000319016677099
0.0125608371815
-0.000327716015867
-0.000109794924372
-3.43201054485e-05
0.000216449005094
-0.000226219941616
-0.0122527944318
-6.49880113314e-06
0.000213452906513
0.0122801415415
-0.000286747034691
-0.000100118116702
0.00020180406863
0.000331494913029
0.012574604875
-8.38530264533e-05
-0.0124728637881
0.000270875435015
-1.08557088273e-05
0.0124938498645
-0.000245858214898
0.0125054890811
0.000248080134394
3.3792700156e-06
0.0122606431069
6.8865502592e-06
-0.000155911451249
0.0122773878302
0.00013759481155
0.012521085038
0.000269319202202
0.0122593796913
0.00029341058535
-3.01317343542e-05
0.0125293351129
-0.0125439850313
-0.00030921133505
0.000300064574765
0.0125811887246
-0.0122676010518
3.48571136309e-05
0.0122838312564
2.6172493371e-05
-0.000165089809437
0.000141803652289
0.000291195290231
0.0125805200001
-0.000164988120893
-0.0125320145356
5.07512600646e-06
0.0125358032974
0.000160896467075
0.0125115609335
0.000142655823684
-0.012517563151
-3.07062855332e-06
0.000103402904456
0.0122981010212
-4.433718818e-06
0.0123054074911
-0.012304078353
9.16081918686e-05
0.0125133937997
-0.0125355965588
0.000142762939181
0.0123087355474
9.74311915554e-05
-0.000187127926707
0.0125421275087
3.38080028033e-06
0.000178712090721
-0.0125200923705
0.000208988073238
0.0125309811317
2.80194297415e-06
0.000108400601888
-1.14216723948e-05
-0.012303857352
0.000105269037696
0.0123021746478
0.000194663317848
0.0125520448462
0.000100055088723
0.0125582493421
0.000164528035752
9.74108639249e-06
-0.0125532780592
-0.000175688172907
-0.0125692376913
0.0125761853477
0.000156888738022
-1.75625924373e-05
-0.0123119077479
0.0123083567536
-1.10461789843e-05
-9.48942705668e-05
-0.0123211119664
9.05110722966e-05
0.0125658590394
-0.0125645530803