/*--------------------------------*- C++ -*----------------------------------*\
| =========                 |                                                 |
| \\      /  F ield         | OpenFOAM: The Open Source CFD Toolbox           |
|  \\    /   O peration     | Version:  v1906                                 |
|   \\  /    A nd           | Web:      www.OpenFOAM.com                      |
|    \\/     M anipulation  |                                                 |
\*---------------------------------------------------------------------------*/
FoamFile
{
    version     2.0;
    format      ascii;
    class       volVectorField;
    location    "8";
    object      U;
}
// * * * * * * * * * * * * * * * * * * * * * * * * * * * * * * * * * * * * * //

dimensions      [0 1 -1 0 0 0 0];


internalField   nonuniform List<vector> 
28582
(
(0.815215492192 0.00322026893478 -0.000390698819978)
(0.81604914021 0.00155708343791 -0.000165965450767)
(0.816011019378 0.00346814540641 0.000356215193763)
(0.81619100607 0.00184204872409 0.000740274803082)
(0.817456835366 0.00413264530017 0.000754781859909)
(0.816356000823 0.00230058304906 0.00132226481224)
(0.821086931215 0.00741800596034 0.00197536767977)
(0.818053437115 0.00480785887499 0.00385934730851)
(-0.218059074362 -0.118821667326 0.0153264068616)
(-0.0892592288328 -0.106470269066 0.00346676324395)
(-0.651085457177 -0.12815554543 0.513144049931)
(0.819117461848 0.00602425003828 0.00442065884881)
(0.777756964028 -0.00159760368049 0.000533102384176)
(0.773481902944 -0.00397149423757 0.00409149746684)
(0.815558184171 0.00302593291172 0.00325903995274)
(0.814160443198 0.00268426904464 0.00455468815483)
(0.771362043794 -0.00513900831242 0.00392326630435)
(0.811538313723 0.00457835371694 0.0051666182193)
(0.810796403562 0.00456750336465 0.00652909555962)
(0.814440168868 0.00626175067575 -0.000969180418669)
(0.816447645063 -0.000844544065782 -0.000239274259903)
(0.815278230268 -0.00157690769487 -0.000503438397666)
(0.815133569863 0.00648799347306 -0.00184143217263)
(0.816221176706 -0.000554013275463 0.000512266470311)
(0.815123801144 -0.00162044828318 -3.13910881855e-05)
(0.817004989182 0.00733945147267 -0.00449536792303)
(0.815594421513 -0.000202324551577 0.000343191359186)
(0.81934153934 0.00885161190394 -0.00874598699252)
(0.815671918549 0.00222129971778 0.000840132136099)
(-0.117813881275 -0.0795705598836 -0.00999632261719)
(0.371919560702 0.692838562215 0.248998856647)
(-0.386662022719 -0.27059830035 -0.420538529232)
(0.82388735725 0.00691839025047 -0.00466866691137)
(0.822440013083 0.0080642449693 -0.00332175443254)
(0.77644996841 0.00466394331508 -0.0159489114661)
(0.777448798024 0.00368242975481 -0.008444725137)
(0.823713482296 0.0103803658689 -0.0101509595662)
(0.814669585429 0.000989399593536 -0.00117964111031)
(0.814150469216 0.00213582698781 0.00218038705752)
(0.813035129582 0.000807706454723 -0.000168995104666)
(0.810881811435 0.00347885894226 0.00417563402339)
(0.771068267117 -0.0107638788993 -0.000918826825148)
(0.809890025547 0.00372587276461 0.00524622229)
(0.808696318728 0.00137408140097 0.00320302090266)
(-0.158435193904 -0.140958911257 0.0183579752633)
(0.0408604963319 -0.0859263764218 0.00641214750465)
(-0.192931867492 -0.00332320681283 -0.158281588605)
(-0.21409970786 0.0760366083473 -0.0728421700846)
(-0.100736413994 -0.12976411802 0.0159248588997)
(-0.139124054079 0.120271319772 -0.199524284897)
(0.823024124574 0.00937269247547 0.000834590823757)
(0.821136380321 0.00872520379469 0.00732357195049)
(0.775864781334 -0.00191286504577 0.0021777037955)
(0.776819137758 -0.000941506553603 0.00271920851451)
(0.82260743688 0.00910023082117 0.00311613199906)
(0.774807522946 -0.00163771846653 0.00521280700317)
(0.821665081623 0.00922844941806 0.00518297745763)
(0.81900512042 0.0080706239781 0.00775945782597)
(0.816996583971 0.00735573131715 0.00719270106223)
(0.774740125257 -0.00335749872298 0.00361551386146)
(0.772381625805 -0.0036069359005 0.00768752353154)
(0.816186302819 0.00710481965259 0.0097479407704)
(0.773618668482 -0.00270137633504 0.00675793531885)
(0.819639651715 0.00841425587819 0.00517869391886)
(0.813186186872 0.00557741522126 0.00817397928312)
(0.815870656884 0.00684137257729 0.0059718377364)
(0.77012291528 -0.00637903242942 0.00359955813364)
(0.770210857991 -0.00435345904321 0.00724048288199)
(0.815119648669 0.00675766234851 0.00850243413923)
(0.768897968451 -0.00546076733202 0.00655181177519)
(0.814090203278 0.00554064996807 0.00601354535188)
(0.812212333979 0.00447173086579 0.00333141947015)
(0.768075131195 -0.00866171058933 0.00200299069484)
(0.767148208128 -0.00667230018946 0.00465204988191)
(0.812491935923 0.00483620944251 0.0063395212889)
(0.768616279813 -0.00764866021728 0.0030933645145)
(0.767694765931 -0.00601697737053 0.00595512687264)
(0.813175591882 0.00488239142762 0.00426917177079)
(0.810357317598 0.00399369662707 0.00842168758482)
(0.76705822688 -0.00533333435073 0.00457691666659)
(0.766843911826 -0.00284512550299 0.00752590796938)
(0.811852535993 0.00470331448541 0.00750522238992)
(0.766931256833 -0.00288038282894 0.00829347898774)
(0.811457855598 0.00411294919496 0.00913894669796)
(0.767422477393 -0.00515351503675 0.00583834850639)
(-0.20853990959 -0.0594682887981 -0.00239541364763)
(-0.031330101556 0.222020057621 0.0722757422192)
(-0.173744928919 -0.012743673295 -0.0181947540918)
(-0.26127781499 -0.0394230462 -0.000264926002098)
(-0.0302953618048 0.180714812329 0.113889241329)
(-0.093339056595 0.222353192783 0.0930152876587)
(0.0627914608519 -0.105712256915 -0.00449726513809)
(-0.271733835757 -0.00586538354976 -0.0115970120438)
(-0.246152559038 -0.0399039874007 0.0710657000178)
(0.0745352316259 -0.115226958629 -0.0113751090516)
(-0.23734724626 -0.0108151087119 0.0319137638215)
(-0.0953962406884 -0.0783073870545 -0.013975012131)
(-0.157410923376 -0.0504701176246 0.0776047644218)
(0.824302622411 0.00941201697027 -0.016909128066)
(0.82119238723 0.00900810110049 -0.0193738318139)
(0.776465589247 0.0045016249496 -0.0141611871801)
(0.775816424338 0.00147425381917 -0.0153239524879)
(0.825133022658 0.00819308658884 -0.0175866732438)
(0.820501947812 0.0099171222111 -0.0186194948258)
(0.775952268117 0.00162704842366 -0.0135865888481)
(0.824744557297 0.00846233670399 -0.0130442774558)
(0.826930288694 0.00656874078085 -0.00926106565162)
(0.778137239559 0.0036558299531 -0.0119723241362)
(0.77628311006 0.00148147105563 -0.00886798753937)
(0.825729978428 0.00701929144949 -0.0132004075171)
(0.825941434505 0.00795207289188 -0.0091638610657)
(0.777136512325 0.00125150293468 -0.0115901322486)
(0.777140257556 -0.000633145157275 -0.00920353552248)
(0.776712352865 -0.000388945554554 -0.00550053407431)
(0.824711445388 0.00992741797065 -0.00483377097755)
(0.824215012975 0.00974156527536 -0.0112061020342)
(0.776933537137 -0.000175503473148 -0.0072284807265)
(0.8253071738 0.00930728149493 -0.00701483842033)
(0.777352273523 -0.00041003365303 -0.010290246121)
(0.81180191771 0.00346771644196 0.00244056891176)
(0.767776486174 -0.00971143573581 0.00163107194795)
(0.767115024603 -0.00726692391637 0.00372088611398)
(0.810992189278 0.00263201005138 0.0015330768254)
(0.76850981386 -0.0102679207004 0.000759472222674)
(0.811893707756 0.00304257816596 0.000104802970949)
(0.768072942818 -0.00740799361476 0.00214875412091)
(0.811124464048 0.00145519535496 0.000854398846347)
(0.812102503558 0.0016429729777 -0.00220205952594)
(0.769561483089 -0.0108256263028 0.000133530099044)
(0.771060243401 -0.00793450175885 -6.69668605957e-06)
(0.811975744267 0.00227390326339 -0.000429535017006)
(0.811127818732 0.000718528375015 -0.00132976393101)
(0.769412417179 -0.00793008605051 0.00142813713483)
(0.808943717717 0.00271038112264 0.00458584211299)
(0.809176798026 0.00313962136398 0.00720954022717)
(0.767289633984 -0.00563309174485 0.00379213239131)
(0.767100269137 -0.00349182367756 0.00702492232693)
(0.767601348562 -0.00366208825005 0.00546334240186)
(0.809848334545 0.00297043981395 0.00249562918791)
(0.767913270169 -0.00571448921093 0.00181687003895)
(0.768833996904 -0.00445769549701 0.0038705852211)
(0.771091373494 -0.00494628190759 0.00133361645604)
(0.808657450489 0.00024139880892 -0.00023490235328)
(0.809886621386 0.00159726851037 0.00163435204441)
(0.771218466885 -0.00683909263107 -0.000787234396604)
(0.809817535248 0.000812520511668 -0.00102084467773)
(0.769297302177 -0.00634035317196 0.00114149785661)
(0.815085140246 -0.00191826958477 -0.00123599410679)
(0.814291848921 -0.000561446761165 -0.00224208308481)
(-0.0935438741403 -0.0784160843827 -0.0101978733639)
(-0.100014812492 -0.178634973154 -0.472105849887)
(0.822198893979 0.00711125060932 -0.000182229073816)
(0.777561834955 -0.000522516912435 -0.00264111262607)
(0.812593572069 -0.000884744553967 -0.00211641880508)
(0.81329405984 -0.00263203626937 -0.00326184032866)
(0.772563160933 -0.0105242206428 -0.00191909015569)
(0.772808043493 -0.00614201758605 -0.000871813005189)
(0.774647629021 -0.0072515535818 -0.00524702239122)
(0.813723826234 -0.00330396944752 -0.0026190681119)
(0.815208587347 -0.00381415768517 -0.00114053458599)
(0.774388163946 -0.00786253533173 -0.00606669913823)
(0.77151161008 -0.00976558984282 -0.00490957901134)
(-0.241115148737 -0.131750744578 0.0108431195065)
(0.0403988619809 -0.118592882265 -0.0101529278036)
(0.0269092243736 -0.115219711845 -0.00724160385484)
(-0.103189888604 -0.0389815778839 0.0944330753494)
(-0.16052461526 0.00925705054943 0.0537776149361)
(-0.110267209579 -0.0119544989257 0.0750270508703)
(-0.00718507523585 -0.0918449251327 -0.000738398577075)
(-0.0506240626267 -0.0579678069669 0.00436811436078)
(0.822841341797 0.00768544072636 0.000558912810837)
(0.823383804636 0.00894295654206 -0.00276002030454)
(0.778045168352 -9.81930446875e-05 -0.00523366416887)
(0.775547391149 -0.000798151016819 3.74218177725e-05)
(0.824077449651 0.00827374745197 -0.0050229273462)
(0.776754205228 -0.000204789166985 -0.00207404778625)
(0.822041819535 0.00871570421926 0.0023162029475)
(0.811738997588 -0.00151791832809 -0.00252936524402)
(0.812288924138 0.000828369786551 -0.00209789159894)
(0.77265648973 -0.0101856542443 -0.00191352037011)
(0.772368246542 -0.00828703715223 -0.00102646068748)
(0.812786693192 -0.000200015903911 -0.00291892541366)
(0.811311075139 -0.000431032586219 -0.00122590217107)
(0.772394432524 -0.00791730170711 -0.00143387230901)
(0.810511186807 -0.00165909131847 -0.0030688307691)
(0.808874859081 -0.000763889022301 -0.00111166497985)
(0.772726011606 -0.00757687563862 -0.00183716088287)
(0.773689240514 -0.00657793705455 -0.00252569714982)
(0.810038283237 -0.000520233699019 -0.00126828792257)
(0.773079815927 -0.00752350793509 -0.00279772418092)
(0.80947140756 -0.00187265406326 -0.00369766942869)
(0.810971579389 -0.00274222593407 -0.0031534703291)
(0.811400258866 -0.0031117092659 -0.0056725022336)
(0.773764410664 -0.0068837944302 -0.00463094396625)
(0.774341988215 -0.00685762799154 -0.0042951029748)
(0.811954774807 -0.00358384733825 -0.00433521475034)
(0.773270593898 -0.00726816409236 -0.00404176692269)
(0.810143599326 -0.00255409753006 -0.00416168910415)
(0.812952632685 -0.00424014632572 -0.0040726018466)
(0.812313769446 -0.0035227328908 -0.00562538589803)
(0.773760060924 -0.00686129808737 -0.00519957102681)
(0.773634878371 -0.00838580981816 -0.00555362075384)
(0.812468086611 -0.00411769141768 -0.00435230314134)
(0.773576219775 -0.00682269808188 -0.0047529853231)
(0.812879012028 -0.00345978886434 -0.00558670253773)
(0.813133871473 -0.0041949637895 -0.00406651333442)
(0.813937499697 -0.00322488438519 -0.00465220757307)
(0.772080554668 -0.00770179495871 -0.00463715556065)
(0.772789859918 -0.00901799550873 -0.00557792283098)
(0.813677921276 -0.00421028381056 -0.00403253295238)
(0.773197478297 -0.00704501316082 -0.00482469624663)
(0.81329395768 -0.00333144382949 -0.00533361830154)
(0.792121226833 0.010156758965 0.00265739959074)
(0.798517230278 0.0107162126712 -0.000258521243978)
(0.800471180432 0.0162155232438 -0.00146962364202)
(0.802202653179 0.0102107160321 -0.00199402265054)
(0.208083647483 0.0999980577663 0.00276999778762)
(0.34693763912 0.127892501086 0.00406559334017)
(0.21236024107 0.0488046787348 0.00173393034149)
(0.388461829286 0.0730627987263 0.00190403603495)
(0.367111134118 0.044536255622 0.000189791450293)
(0.250242253308 -0.00936086337249 -0.324440946848)
(0.350729163704 -0.0608769989051 0.455102653171)
(0.168659026428 -0.0491367513503 -0.279046678746)
(0.447531558303 -0.176233466981 0.0266295017009)
(0.126498585644 -0.0271763238824 -0.243436657147)
(0.353470197263 -0.0735957747578 -0.131405647789)
(0.790686935148 0.00243778765657 0.00202997791339)
(0.791605031948 0.0047736497345 0.00238567947405)
(0.781967451868 -0.000179256797191 0.00345571105158)
(0.782848620657 0.00390817263036 0.00346714117133)
(0.78842333691 0.00722928094561 0.00479741693037)
(0.783302772114 0.00434375468567 0.00325227666248)
(0.793694123677 0.00645920170588 0.00311437236937)
(0.79613779549 0.00808840242748 0.00254833292777)
(0.783337243885 0.00447712112047 0.00351527614608)
(0.785389127775 0.00603727995557 0.00146819918026)
(0.790625709836 0.0138914710126 0.00513402858779)
(0.795681458298 0.0105993007382 0.00154495562225)
(0.795330256208 0.0145918419628 0.00186211072829)
(0.784041801552 0.0053959902227 0.00347782171225)
(0.783078382739 0.00859886670061 0.00210116478536)
(0.786250357676 0.00698383894532 0.000909220594111)
(0.786869563846 0.00859418525093 -0.000394749112833)
(0.79771266414 0.0190553461182 0.00139401247273)
(0.799888861335 0.0230648251725 0.00214652015715)
(0.782155413498 0.0107530893589 0.00196089676672)
(0.783717550087 0.016142468598 0.00036818087609)
(0.786566462746 0.00898967065128 -0.000186550780818)
(0.785563254926 0.00993266124942 -0.00170562850982)
(0.798729123515 0.0133475843017 0.000237097911643)
(0.800682532004 0.0112317786038 -0.000259616633468)
(0.78699627716 0.0062023029799 0.00030514740962)
(0.787271689146 0.00724729752873 0.000108915533787)
(0.78833457866 0.00663945324999 0.00127798211787)
(0.802213523758 0.0180976714385 -0.00146710726374)
(0.801714340282 0.0130302864567 -0.00162790527215)
(0.802977901248 0.0137707230788 -0.00203309988181)
(0.786784677567 0.00741478730005 0.000612236725575)
(0.785725524764 0.00862548088585 -0.000209262365797)
(0.787994239753 0.00701088526081 0.00191918117703)
(0.786618747204 0.00789351593635 0.00246201613965)
(0.788395316902 0.00690289461975 0.00150549984472)
(0.786521372764 0.00827836514203 0.00205666906545)
(0.162917735932 -0.0473030880345 0.000817408501769)
(0.169478105384 0.0155404400802 0.000587314334302)
(0.244117160246 0.0329552443534 0.00541323446945)
(0.199545671778 -0.0420535867669 -0.289417425258)
(0.304471244159 -0.00718984857528 -0.350443280923)
(0.208785461335 -0.034541466829 -0.245506058189)
(0.327318998859 -0.0111585190738 -0.2830769928)
(0.301656374297 0.0326667484423 -0.313288594204)
(0.149652118742 0.0540795603845 -0.0794305853003)
(0.327877180319 -0.0195252276627 -0.240376470501)
(0.21514671653 -0.00609603812986 -0.0533752687919)
(0.13109949432 0.0702640933918 -0.000537497916151)
(0.106433818752 0.071427604621 0.000342818891351)
(0.303022476081 0.1292978749 0.00600927126268)
(0.188156996044 0.0993584475294 0.00225627394217)
(0.283561904902 0.119265945679 0.00405234461701)
(0.190786579912 -0.0488232858933 -0.199003812609)
(0.278007317758 -0.0330467562365 -0.19398703525)
(0.179908364248 -0.0482983953902 -0.0767771560742)
(0.269806914256 -0.025199514855 -0.0770189181559)
(0.350614664638 0.0911460608179 0.00119256873505)
(0.375009940624 0.117764436185 0.00488221406694)
(0.416100691319 0.0917704455763 0.00121169348755)
(0.314532490239 -0.0529238305125 -0.10428456631)
(0.277018942305 -0.0299334627938 0.0109296769356)
(0.305295220445 -0.0363148562631 -0.069941056895)
(0.295001679541 -0.0494206006407 0.0465808121507)
(0.297923042394 0.0612958959017 0.0026716188283)
(0.313356994136 0.0312164921628 0.00161010385161)
(0.163687043309 -0.0404225110515 -0.0517973333532)
(0.222790468388 -0.0322250322761 -0.0840445760382)
(0.216512946089 -0.0198963188615 -0.122910226581)
(0.446878601357 0.0586081767962 0.000577169995102)
(0.392443376179 0.0442408272439 0.000513145372319)
(0.444526867242 0.0330722768439 0.000131242957461)
(0.298861407679 -0.050708097479 -0.0694575408603)
(0.305643936539 -0.0586840075751 0.0124973015892)
(0.302584942152 -0.0332927179383 -0.101172586854)
(0.322814096754 -0.0340407758353 -0.0382174237694)
(0.796065725302 0.00301318759972 0.00531932831725)
(0.794302144468 0.00273884131618 0.00514273630642)
(0.781260566065 -0.000129688984605 0.00325730632168)
(0.782079267021 0.00157533873468 0.00415116557966)
(0.794733258329 0.00366142724319 0.00568844408598)
(0.781323934706 0.00123811037288 0.00375023192877)
(0.795651599748 0.0024092715587 0.00484952911709)
(0.796486620394 0.00381899368122 0.00524297442452)
(0.795862794682 0.00532326036115 0.0058422636194)
(0.782435422158 0.00237842519595 0.00387657746066)
(0.781859256321 0.00330997989288 0.00372345673866)
(0.795330049355 0.00474252576188 0.00575272780384)
(0.797091844349 0.00478777606283 0.00483469433247)
(0.781533341882 0.00214747732331 0.00355070593894)
(0.792166966135 0.00643034873066 0.00660055676323)
(0.794208044768 0.00643174447849 0.00527811420058)
(0.782609620146 0.00280758569351 0.00410990329198)
(0.783439423625 0.00527789487068 0.00288535353813)
(0.793350760432 0.00486040139871 0.00672715032578)
(0.793447246379 0.00775245808824 0.00649583078562)
(0.782372744839 0.00313326131898 0.00377983930718)
(0.798964411086 0.00542922564744 0.00368262735241)
(0.796744129639 0.00614195551277 0.00536822303568)
(0.782091113215 0.00381890637384 0.00396633662964)
(0.784184441177 0.00572587043089 0.00282127405099)
(0.798175915666 0.00522646193362 0.00461244486026)
(0.797809922721 0.00650720817285 0.00475785525814)
(0.7825577336 0.00485714483384 0.00294236047392)
(0.799853728952 0.0059758724105 0.00268782942044)
(0.799919527839 0.00767138633317 0.00253117890408)
(0.78456803632 0.00586227685953 0.00175091508444)
(0.784096630499 0.00502669382348 0.00150422522276)
(0.798762113513 0.00717258016835 0.00331061757574)
(0.800775182659 0.00640340369937 0.00204520146841)
(0.783128922616 0.00509744472583 0.00202263649315)
(0.796097997716 0.00926845727166 0.00482150970184)
(0.795718261073 0.00731055412975 0.00486297896124)
(0.7844283418 0.00617141683391 0.00308470213597)
(0.784946861019 0.00680043602477 0.00294840726712)
(0.79469811124 0.00898774720194 0.00557121419189)
(0.797055199434 0.0076921708261 0.00412075988104)
(0.78560211709 0.00762106090409 0.0023489515254)
(0.795776866876 0.0108817164514 0.00372203345889)
(0.793953470054 0.0121835297232 0.00485428844271)
(0.783970186853 0.00708601937656 0.00283084735479)
(0.784745771102 0.00965204327895 0.000696842970306)
(0.794247247401 0.0104746256177 0.00490357453372)
(0.795517415322 0.0129279221086 0.00374318888862)
(0.785204778058 0.00847585495234 0.00197096751368)
(0.797653830027 0.00984912245044 0.0022937703072)
(0.799577717871 0.00870780221602 0.00144204676925)
(0.785540818049 0.00673651241675 0.00161460944509)
(0.786790365182 0.00771639403646 0.000294972911372)
(0.7984072987 0.00828825533108 0.00237434831413)
(0.799353340383 0.0103772146657 0.00126579739503)
(0.786069416332 0.00746104569984 0.000952340169849)
(0.797865896278 0.0116241313756 0.00128761366237)
(0.799715638296 0.0139620100551 0.000486139928968)
(0.785906513281 0.00897258229586 -9.67011440363e-05)
(0.786950983918 0.00822425418898 -0.000108837732482)
(0.797818721406 0.0137599011614 0.000862987108516)
(0.799557570644 0.0120048316751 0.00033238544485)
(0.78618534442 0.00817883339432 0.000550779704069)
(0.79749907503 0.0171735353457 0.00310733445646)
(0.794474416733 0.0137042145291 0.00421330788856)
(0.781989312702 0.0128492677821 0.0017930471633)
(0.783965547937 0.0109050613979 0.000629707293094)
(0.795097746598 0.0161534407025 0.00500231204231)
(0.796382686812 0.0149411177836 0.00262403068617)
(0.783610066182 0.0125269655617 -0.000132508655402)
(0.799006900153 0.0193107459015 0.00089736394551)
(0.799550796914 0.020718311648 0.00421443214603)
(0.782756700311 0.0147858572192 0.000978874139362)
(0.784224089747 0.0144489113767 -0.000973942416443)
(0.7965754075 0.0184079214037 0.00314757019769)
(0.783848529804 0.0135291757785 -0.000587854229964)
(0.801782391834 0.0210980259853 0.001867440594)
(0.799461915336 0.0177345301308 -0.000131308960998)
(0.800341658417 0.0159151410725 -0.000229432589956)
(0.785412287898 0.00993447390972 -0.000294075546061)
(0.786203455291 0.00932658329722 -0.000574271496774)
(0.798593140432 0.015910486398 -0.000186555202081)
(0.801103858725 0.0175003812209 -3.41603977501e-05)
(0.785056351904 0.0110509824379 -0.000979352488024)
(0.800854773656 0.0194590802484 -0.00208351533281)
(0.803661868649 0.0198116844913 -0.00185411399314)
(0.784940465145 0.0125858530842 -0.00200638571843)
(0.785702613132 0.00957161270304 -0.000887283439914)
(0.802097908591 0.0189171119994 -0.00177983633593)
(0.784901073462 0.0120187367722 -0.001168342943)
(0.802832268005 0.0206940170619 -0.0018043675601)
(0.802192733976 0.0105893965723 0.000528872028791)
(0.800817114273 0.00914593881615 0.00045558960874)
(0.78723520283 0.00671368139753 -5.84586131479e-05)
(0.787659008239 0.0061253021608 0.000327002286099)
(0.800809869367 0.0107213947774 0.000378418096682)
(0.802033282131 0.00923377800328 0.000218509676922)
(0.787928938515 0.00660393740409 0.000248887717313)
(0.80247349081 0.0119239755602 3.82428214141e-05)
(0.801543372491 0.0139167233368 0.000185625077604)
(0.787240773446 0.00692138251745 -0.000169527697203)
(0.787657352505 0.00729982153613 0.000756574733891)
(0.801126323538 0.0122414901964 -0.000168401348597)
(0.802899416572 0.0131611675549 0.00067856635268)
(0.787794196966 0.00691800231035 0.000363291706314)
(0.803491499791 0.0111422758162 0.000223583399197)
(0.804545211974 0.0107684268584 0.00077549939302)
(0.788012736165 0.00638353921797 0.00118961278246)
(0.788625232669 0.00612607881456 0.00105027621366)
(0.803869476606 0.0119575657427 0.000852484062374)
(0.8041940214 0.0101635231022 0.000269008457098)
(0.788284431085 0.00604358981554 0.000894228871266)
(0.803619475596 0.0153657758887 0.000532457408905)
(0.802033465471 0.0156061345354 -0.000175685989753)
(0.786717284651 0.00796338027416 0.00067844279346)
(0.787450581955 0.00743165780905 0.0012863869397)
(0.802609594103 0.0168134308626 -1.70054876047e-06)
(0.803211194938 0.0144463218331 0.00029977355365)
(0.787172804871 0.00781688489675 0.00158907098014)
(0.803820657628 0.0164141573558 -0.00037599198656)
(0.804342936677 0.0185647118671 -0.00175794584021)
(0.786129035102 0.00822189903303 0.000648509405863)
(0.786021553729 0.00822067596765 0.000915569565253)
(0.803213331097 0.0182283170706 -0.00128317790708)
(0.786690672876 0.00791599945451 0.00156391750161)
(0.804577508656 0.0165795395936 -0.000947802879993)
(0.804337664852 0.0135311084115 0.000978310292721)
(0.804747919556 0.0113882106536 0.000620004625475)
(0.787691625522 0.00673153124709 0.00183304674451)
(0.787796962185 0.00757367299356 0.00238020958192)
(0.804080986434 0.0128973487669 0.000752632590184)
(0.804912031366 0.0119395649414 0.000961988080303)
(0.787416967184 0.00719728819593 0.00218277452618)
(0.804341449276 0.0144856989724 0.000429429146933)
(0.804784893135 0.0126724510034 0.000162220180596)
(0.786433216596 0.00801045971731 0.00190453032596)
(0.787321188277 0.00775425891958 0.00270385872898)
(0.804748882881 0.012546341286 0.000623517233975)
(0.787103215451 0.00756816375387 0.00227501729878)
(0.804677774358 0.0146044496075 -0.000163053057865)
(0.805179019993 0.00880468030853 -0.000238976296015)
(0.805077594319 0.00989171349866 0.000323668284609)
(0.788010121054 0.00765191020401 0.00207096945161)
(0.788619686416 0.00724309544474 0.00110739954417)
(0.80507704524 0.0102854564595 0.00067089568767)
(0.805246180887 0.00867020961706 -0.000178901581323)
(0.787930613356 0.0079909903529 0.00119105234977)
(0.804716761802 0.0106629669412 1.12568951307e-05)
(0.787439307205 0.00795742170774 0.00231388200408)
(0.804907821286 0.0105743483103 0.000485202810022)
(0.817350086519 0.00361171398379 -0.000652306650705)
(0.818304369933 0.001605304823 -0.000415937878478)
(0.818300965178 -0.000595973218097 -0.000396867411586)
(0.815168699848 -0.00333515053299 -0.00039078044106)
(0.810280439714 -0.00465961938423 -0.000112863648913)
(0.826156682546 -0.0454784567178 0.000143415401861)
(0.818112465953 0.00375073663647 -0.000386045184082)
(0.818481857176 0.00177044399544 0.000423075782009)
(0.818355996709 -6.35449656794e-05 0.000222107618502)
(0.815417542409 -0.00347902672387 0.000563135983696)
(0.810857802812 -0.0050979832557 0.00222064746985)
(0.827932572897 -0.0479004427742 0.00295920985839)
(0.816502991454 0.00580674678456 -0.000580988243933)
(0.813185807584 0.00582189328076 0.000528635261161)
(0.79057686882 0.0100183739214 0.00251263183187)
(0.786866478961 0.0100690792463 0.00154892094553)
(0.783919217947 0.0116274655815 0.00231510337607)
(0.778849396636 0.010207297991 0.00552763187591)
(0.783931007813 0.010547413316 0.00191733778447)
(0.736122376612 -0.0294243361816 0.0273708124687)
(0.826427004424 0.00445205253538 0.00031099138838)
(0.824175216587 0.00262302483113 9.65344938792e-05)
(0.821031648317 -0.000782273098932 -0.000663251818782)
(0.818603707838 -0.00229968708236 -0.00191212264395)
(0.817662103396 -0.00327406751364 -0.00309873613654)
(0.818284298256 -0.00464182969557 -0.00147398920203)
(0.813535636369 -0.00314184067328 0.00275555172233)
(0.822694030614 -0.0809051997813 0.012237688261)
(0.820592990293 0.00563442700752 -0.00140682864122)
(0.823363879323 0.00332584513247 -0.000627956045705)
(0.822802011431 0.00191222765832 -0.000786002102009)
(0.821110402124 0.00086052241383 -0.00116816797572)
(0.819594628826 -0.000161316747654 -0.00152623625124)
(0.820252859582 -0.00301172957261 -0.000526093481477)
(0.814299160554 -0.00505712849001 0.00181728800382)
(0.828293602732 -0.0652368184655 0.00495583367997)
(0.817027497819 0.00675097782856 -0.00117291527253)
(0.820121389052 0.00292041696484 -0.000450171870478)
(0.820107084511 0.000495656364464 -0.000366779494008)
(0.819354853147 -0.00164508119035 -0.000593621514378)
(0.817810808166 -0.00248036636379 -0.000981524847191)
(0.818131641622 -0.004551830017 -0.000620519306799)
(0.812791519837 -0.00607168972307 0.000430060238491)
(0.828282344387 -0.0670598478038 0.00169006451953)
(0.816569665656 -0.0012227941304 -0.000508636573407)
(0.816535915513 -0.00320670445479 -0.000228631392534)
(0.811289341317 -0.00501299581183 0.000251139959761)
(0.82842437776 -0.0516509560089 0.000619245090027)
(0.639819919214 0.0414978922869 0.00906644796127)
(0.637889188482 0.0394911191047 0.0143173497683)
(0.648410722387 0.0232218791748 0.0191011032698)
(0.647106962131 0.0198405587317 0.0167634551606)
(0.646989706379 0.0206341947692 0.0172759056781)
(0.64125290153 0.0210215368672 0.0219649455266)
(0.687414808649 0.0275511410122 0.0216916079995)
(0.493905799598 -0.0768617355385 0.052671584366)
(0.773820465216 0.0130238592983 0.00572165362117)
(0.770963427971 0.00865555839886 0.00794712937892)
(0.778343277445 0.00151443367438 0.0128002465757)
(0.774657236593 -0.000813059051056 0.0132728304831)
(0.774638866498 -0.00079053295683 0.0146873470332)
(0.778328738772 -0.00292115423062 0.0165691997621)
(0.788801657783 0.00594799195277 0.0229899682359)
(0.796359403477 -0.143496708811 0.0328342261299)
(0.822426262897 0.00634455823953 -0.00187159321454)
(0.824053157546 0.00421901858834 -0.000418644461855)
(0.822819004009 0.00281049746014 0.00118909662521)
(0.820735655715 0.00300882191614 0.00119762366813)
(0.820260476251 0.00240328480854 0.00145464433978)
(0.82227716133 -0.000328122747251 0.00185791676719)
(0.818762579006 -0.00338377457481 0.00592170347346)
(0.847234381233 -0.0947762388186 0.0105611503521)
(0.81797907354 0.00644121315595 -0.00218802568552)
(0.820873251533 0.00299665349152 -0.000498315837073)
(0.820093030206 0.00124990188114 0.000853076535127)
(0.819046069337 -0.000833476763083 0.000842278364452)
(0.817920782169 -0.00239409152832 0.000751421245941)
(0.819413945301 -0.00539089071034 0.00170018864481)
(0.814856388223 -0.00754811281668 0.00463518173382)
(0.835283257594 -0.0786811985302 0.00698146567762)
(0.816663659965 -0.00102851511341 9.90990822211e-05)
(0.817171429055 -0.00299943950847 0.000805081353773)
(0.812206868268 -0.00512298327604 0.00285446703189)
(0.831334145195 -0.0587982184702 0.00393489970345)
(0.636730524243 -0.0160351839049 0.0136385053271)
(0.63358619922 -0.0164350438281 0.0194770150246)
(0.641218798597 -0.0215852649205 0.0248899259958)
(0.637182086306 -0.0208890832604 0.0230588986902)
(0.636516682405 -0.0206568077132 0.0229341435244)
(0.634157883833 -0.0181474348827 0.025200055015)
(0.68745647431 -0.00217251344732 0.036147952028)
(0.516807653361 -0.195357672041 0.00248073438356)
(0.73585242943 0.00532076148352 0.0178342403018)
(0.736664074407 -0.000334868102055 0.0220492077863)
(0.787007877435 -0.00270155086271 0.0119019817215)
(0.784228667293 -0.00314172384308 0.012077685732)
(0.783139093539 -0.00401738282884 0.0105478388454)
(0.787484137217 -0.0047162467552 0.00927776023007)
(0.802055213826 0.0043400106769 0.00767342050806)
(0.831675555284 -0.156424260109 0.000133388238656)
(0.82472602766 0.00569240140573 -0.00535893616185)
(0.827044962759 0.00408057557276 -0.000547852377035)
(0.824970358193 -0.000249928004106 0.00153704881519)
(0.821232568673 -0.0027532178012 0.000882091731782)
(0.820456306237 -0.00407660099479 -0.000771910788901)
(0.824160394649 -0.00598719127207 -0.000948290046888)
(0.822211136063 -0.0095652880069 -0.0010830315384)
(0.865320781092 -0.120626989664 -0.003082344727)
(0.813101694447 0.0101615996154 -0.00705215549808)
(0.820246295743 0.00669143870855 -0.00481313162352)
(0.823196555296 0.00276033687041 -0.000905366220103)
(0.821224395908 -0.000150284507412 0.000883017553204)
(0.81987350021 -0.00204754775526 0.000412022080214)
(0.818749548191 -0.00400978743356 -0.000403517734392)
(0.821088080097 -0.00616776851702 -0.000217808322201)