/*--------------------------------*- C++ -*----------------------------------*\
| =========                 |                                                 |
| \\      /  F ield         | OpenFOAM: The Open Source CFD Toolbox           |
|  \\    /   O peration     | Version:  v1906                                 |
|   \\  /    A nd           | Web:      www.OpenFOAM.com                      |
|    \\/     M anipulation  |                                                 |
\*---------------------------------------------------------------------------*/
FoamFile
{
    version     2.0;
    format      ascii;
    class       volScalarField;
    location    "12.5";
    object      alpha.water;
}
// * * * * * * * * * * * * * * * * * * * * * * * * * * * * * * * * * * * * * //

dimensions      [0 0 0 0 0 0 0];


internalField   nonuniform List<scalar> 
28582
(
0.999992291785
0.999997968144
0.999995884904
0.999997360912
1.00000099308
1.00000073359
0.999991526097
0.99999114458
0.0611413901675
0.0616308603717
-1.37742659107e-27
0.999991798656
0.85043220738
0.853357572725
0.999989727987
0.99999593955
0.85441082729
0.998099505871
0.99828665473
0.999992783799
0.999998586411
0.999998387443
0.999997136775
0.9999982245
0.999998033701
1.00000093368
1.00000000141
0.999990033384
0.99998683715
0.0616607125707
-2.17762578368e-28
-8.83620975992e-27
0.999988001489
0.999995420042
0.85760127578
0.853020503235
0.997979681248
0.999985017405
0.999995223748
0.999992418832
0.997941238371
0.854010658335
0.998210545852
0.998114641994
0.0615973296891
0.0607315774441
0.000152289478089
0.000340265012013
0.0620887316969
0.000260188682605
0.998035111998
0.998115587431
0.85095759437
0.850944606843
0.99796081714
0.851476056369
0.998194204212
0.998224264572
0.998280626068
0.852101766362
0.854003209938
0.998269514907
0.852635096703
0.998277102392
0.998244850642
0.998265665626
0.855099046985
0.855297937904
0.99826516282
0.856617906136
0.998209189085
0.997961002223
0.856704829512
0.859082568179
0.998195140736
0.855694099607
0.857768360657
0.998109185304
0.998356853584
0.862465765018
0.863910067852
0.998319176215
0.862206975548
0.998382013302
0.860756702789
0.0600491931811
0.000489233499742
0.0587780673693
0.0595085463448
0.000427662323437
0.000440039385711
0.0607654074856
0.000152526975661
0.000275205613816
0.0613793717074
0.000205695000848
0.0618628895764
0.000253564916044
0.997992809975
0.997976573943
0.855805980103
0.855850012445
0.997985415426
0.997973646074
0.853984156404
0.998036816708
0.99809520452
0.854240420744
0.851569185199
0.99801706548
0.998115653036
0.852534548034
0.849649898785
0.849758783787
0.998095650351
0.998046913633
0.850542671547
0.998148625986
0.851003199389
0.997765745984
0.856493146147
0.858906059128
0.997749885612
0.856057096688
0.997555302167
0.858717874744
0.997639928241
0.997385834143
0.855168433523
0.856760507978
0.997430080986
0.997606676129
0.858054673334
0.998227726021
0.998314294028
0.862279168646
0.863887027692
0.863688165977
0.998060413162
0.861821110764
0.862260153036
0.86064585863
0.997990161575
0.997903720973
0.858546551802
0.997815169551
0.860206697021
0.999999307228
0.99998129723
0.0624942286386
-1.55944115687e-27
0.99999438797
0.850108365011
0.999988230777
0.999980401512
0.852633596022
0.857728391201
0.84720999154
0.999975596445
0.999977020127
0.84541904299
0.843738607708
0.0611946380254
0.0622002398499
0.0633732123689
0.000225032122688
0.00021692636739
0.00021656124657
0.0642676502022
0.0647438306728
0.998338550928
0.998239202956
0.850764623507
0.850672528505
0.998281375127
0.851245397832
0.998337434645
0.997578280228
0.997377348443
0.851321172231
0.854920056961
0.997378083434
0.99758445289
0.852502713965
0.997738051371
0.997911171452
0.856051918297
0.853988015545
0.997768731568
0.853059505848
0.997854053601
0.997736960418
0.997743509745
0.848000924284
0.850500845267
0.997743447418
0.850371124996
0.997796856143
0.997742540064
0.997698478314
0.846543564509
0.843850063945
0.997755784196
0.845219191234
0.997660083256
0.9977169327
0.997646490394
0.844966564793
0.843632523914
0.9977233317
0.845216056579
0.997657307421
0.999998773047
0.999996817936
0.999999676242
0.999993687531
0.0510631041177
0.0506558227822
0.0492296798092
0.050070047788
0.0512096807357
-2.34435869896e-26
6.99879048836e-07
-2.13135349209e-24
-1.81724495468e-25
-6.31201948942e-27
-4.61815353869e-27
1.0000011621
1.00000086542
0.892718340148
0.897914290732
0.999996252145
0.89816322884
1.0000026175
0.999999909094
0.898821051125
0.900503909967
0.999997900809
0.999994957665
0.999999766954
0.898974482837
0.900355504194
0.899946425315
0.898855065276
1.00000483141
1.00000852123
0.900799491022
0.900890309955
0.898474628186
0.895213564813
0.999997667457
0.999995897302
0.899195468689
0.897465116126
0.892421553003
0.999999416506
0.999995835165
0.999997082458
0.897013149303
0.893521704917
0.89134074191
0.885315899357
0.88922193511
0.883821684623
0.0548010903259
0.0528170626387
0.0529382119267
2.73266419402e-05
2.48147695565e-05
2.41674277706e-05
2.00291245387e-05
2.69911379327e-05
3.41375922718e-05
1.70994300659e-05
2.38817364843e-05
0.0509063136497
0.0494025625256
0.0509652424128
0.0497705121797
0.0499141181183
2.76180063349e-05
2.17676952494e-05
4.79630439245e-05
3.80718378389e-05
0.0505810616508
0.0500503997069
0.0503605899782
1.41700700876e-05
1.75951301922e-05
3.03925242249e-05
3.10426091998e-05
0.0496678110137
0.0501801500733
6.83026046056e-05
5.86692691755e-05
7.6001807992e-05
0.0507979704593
0.0507682241419
0.0514545946629
5.42866462339e-05
4.82051105521e-05
7.4690320242e-05
7.53150401258e-05
0.999301296596
0.999275445159
0.891961230456
0.894619434307
0.999302562279
0.89384496425
0.999275415445
0.999335112336
0.99934637158
0.896392779586
0.897561346097
0.999335507448
0.999351976527
0.895775902692
0.999284352607
0.999327748497
0.896967940643
0.898670011038
0.999302717548
0.999308956455
0.897692168322
0.999393313749
0.999369444525
0.898580845201
0.899921969952
0.999368866085
0.999395154059
0.899949174308
0.99940497392
0.999427876442
0.900104018268
0.900948085934
0.999408067006
0.999427843296
0.900429007707
0.999387599402
0.999366495315
0.899248164432
0.899855273035
0.99935369802
0.999392688503
0.90004321265
0.999372271173
0.999332419924
0.899852815333
0.900154810491
0.999348892472
0.999342222859
0.900376877928
0.999398257669
0.99941637532
0.89982923955
0.899495472692
0.999400861305
0.999416375222
0.899653618616
0.999395293389
0.999402428683
0.899182244206
0.899272014121
0.999380049602
0.99941365746
0.899591221737
0.999222152538
0.999294762456
0.901262440817
0.900020878529
0.999243848105
0.99929445306
0.899878865308
0.999144218992
0.999160468914
0.901147218135
0.899108075321
0.999190501128
0.899651746099
0.999082962902
0.999285018309
0.999373023606
0.899028338656
0.897760858996
0.999346387694
0.999313304799
0.898829974743
0.999192609048
0.999070607415
0.8975170239
0.896735195689
0.999218587441
0.898415702651
0.999071112085
0.9993878024
0.999401804269
0.898501990986
0.898838115559
0.999404952176
0.99939691483
0.898114845227
0.99938662008
0.999397031876
0.898047249019
0.896533259733
0.99940464772
0.999384607387
0.897609334394
0.999383703922
0.999383182784
0.894553232657
0.893804343144
0.999376546978
0.999386753025
0.895612757448
0.999317419873
0.999380704153
0.896310374365
0.896084984857
0.999332192552
0.999372122684
0.894817496333
0.999221237577
0.999079984259
0.895183935005
0.890982920735
0.999237479633
0.893190502404
0.999056847612
0.999328290657
0.999368033488
0.893621262915
0.889835551922
0.999363909068
0.999319748408
0.892385228903
0.99925298456
0.999099368266
0.888254838518
0.887865546889
0.999240876321
0.890638275054
0.999106473774
0.999257569923
0.999344736832
0.887736580819
0.887726969265
0.999288703101
0.999314497976
0.886107145556
0.999075717486
0.885970441773
0.999206697399
0.99999687976
0.999998739105
0.99999922578
0.999993317446
0.999986187656
0.999991278827
0.999997375368
0.999998497989
0.999999227497
0.999995012996
0.999987307188
0.999991041259
1.00000258766
0.99999222524
0.999956678755
0.999993269129
0.999989887715
0.999943722633
0.999940262361
0.999976497808
0.999982049148
0.999994037348
0.999993990749
0.999993708752
0.999992043745
0.999990817366
0.999984391312
0.999980761263
0.999990219846
0.99999528865
0.999995250998
0.99999668644
0.999997112091
0.999994496139
0.99998333212
0.999989496041
0.999987204421
0.999994655036
0.999998631433
0.999998953468
0.999997384859
0.999989116702
0.999985876385
0.999994475444
0.999998406813
0.999990016125
0.999986033472
0.999993556295
1.00001954256
0.999748475797
0.999952710439
0.999962237623
0.999900804765
0.999902747028
0.999959103099
0.999990947917
1.00000146017
0.999947389569
0.999909653683
0.999982184194
0.999977864069
0.999919992811
0.999932055625
0.999980315134
0.99999569109
0.999979175153
0.999967627215
0.999980620881
0.999992547498
0.999986745356
0.999973293955
0.99998290553
0.999996848256
0.999997361911
0.999998044903
0.99999811736
0.999997348226
0.999995330801
0.99999508389
0.999996310717
0.999998571968
0.999994426649
0.999990282394
0.999994632946
1.00005911382
0.99979550744
0.99987079914
0.999971935607
0.999940576648
0.999939303813
0.999973999208
0.999993681138
1.00005170216
0.999838984306
0.999888065038
0.999972163923
0.999988047184
0.999970414081
0.999965749958
0.999987647015
1.00000027283
0.999999486965
0.999999175111
0.999999405985
0.999999252762
0.999998485506
0.999997632981
0.999998477929
1.00000069028
1.00000050901
1.00000038571
1.00000031527
1.00000009318
0.999999834795
0.999999655268
0.999999672724
0.999999844611
1.0000013157
1.00000107948
1.00000062199
1.00000040243
1.00000025624
1.00000016825
1.00000014573
0.999998976905
0.999998876757
0.999998894411
1.00011316363
0.999964463975
0.999753115267
0.999937958392
0.999989789086
0.999983701702
0.999987465616
0.999988808672
1.00000777144
0.999998497441
0.999986520654
0.999974463923
0.999981518
0.99998603594
0.999982161662
0.99997669937
0.999964981782
0.999998197328
0.999993029867
0.999987361507
0.999987736385
0.99998732474
0.99998575788
0.999981047811
0.999974350201
0.999976355643
0.999982080237
0.999992545285
0.99999266627
0.999990286972
0.999982044265
0.999971417689
0.999968774024
0.999972799099
0.999983250156
0.999986963675
0.999988452399
0.999983201202
0.999963879944
0.999960181512
0.999965646549
0.999978834888
0.99998446844
0.999980514386
0.999986360421
0.999988675015
0.0532006555779
0.0546624066334
0.0570272985193
0.0613015257898
0.0630839775242
0.0648191850414
0.0674986980592
0.0708774785927
0.0504052299732
0.051027929336
0.0514565599442
0.0540423526163
0.0555732073451
0.0578571285568
0.061415554005
0.0637996466466
0.0662150555987
0.0663909114703
0.0513728724568
0.0528152312294
0.0548791595443
0.0562443507892
0.057247116602
0.0590437872338
0.0597381934332
0.0635352358714
0.0653556913956
0.0640695766165
0.0548526229614
0.05765894853
0.0588711623337
0.0596783106343
0.0604998248911
0.0610928994393
0.0635192365047
0.064358216677
0.0627576921103
0.06050794516
0.0622143613826
0.0611456551053
0.0625882010047
0.0634333825332
0.0633851275599
0.0631894535618
0.0635829334117
0.0640270943741
0.064526298219
5.31015117694e-06
7.34391034528e-06
3.04520316392e-06
1.77293877001e-05
5.08922821951e-05
-2.81859621527e-25
-7.66351871665e-27
-1.65953873435e-28
-1.61772258615e-27
4.35749965504e-05
1.81256454505e-05
1.25030441732e-05
2.14049517052e-06
8.40736656644e-06
-2.46913090519e-24
5.36862920715e-05
-9.57127251393e-27
-6.86433877328e-26
-3.9200378634e-26
2.94617195487e-05
2.91477293066e-05
1.06159498256e-06
-2.91269939544e-25
5.81199777046e-06
5.26350403555e-06
1.70474982267e-06
5.03091966801e-05
-1.07942733912e-24
-1.82977885588e-24
3.6868024855e-05
-2.94057178637e-30
-3.23163300216e-28
1.23648746535e-07
-8.53221873535e-28
-5.24893823614e-27
3.41444215876e-07
2.25008420466e-26
-9.90448418032e-25
4.54853872462e-05
-1.89838992667e-26
-3.96295692076e-27
4.72185687122e-05
-1.57961430147e-26
-7.18510213574e-26
-1.95235274451e-25
4.86169578658e-05
-1.55205288173e-27
-4.4610195244e-26
5.56102315881e-05
0.999999983083
0.999986313069
0.999988539784
1.00001601842
0.999995572021
1.00000623517
0.999996681475
0.999959709526
0.999988856329
0.999990908308
0.999861082221
0.999834042089
0.999951418543
0.999899419822
0.999992454681
0.999979129019
0.999982316881
0.999976129929
0.999982570008
0.999977390192
0.999988317411
0.999992166661
0.9999856653
0.999992595286
0.999982597695
0.999976479142
0.999993277677
0.999992069915
0.999962783369
1.00002703966
0.99999884358
1.00003936481
1.00000205168
1.00002703008
0.999977596272
0.999849085814
0.999839201233
0.999811699468
0.999797426552
0.999772385877
0.999747431741
0.999768682907
0.999992434039
0.999970255291
0.999970082077
1.00002130139
1.00000196756
1.00000649149
1.00000080862
0.999890436468
0.999977229004
0.999992197225
0.999927806857
0.999755640471
0.999992664044
0.999916583239
1.00000559744
1.00004467577
0.999993308086
1.00008843854
0.999971106092
1.00010468663
1.00001894733
0.99969891266
0.999782427326
0.999646471404
0.999671488427
0.999593316951
0.999817867209
0.999605165781
1.00000790104
1.00001366403
1.00000371427
1.00003266665
1.00000659814
1.00000048889
1
0.999680540599
0.99998968228
0.999938283805
0.99995365863
0.999849563041
0.999999081847
0.99999948981
1.00017583594
1.00008744962
0.857764683722
0.869821830599
1.00003927256
1.00005427048
1.00001838979
0.863821453018
0.871753086727
0.872907753327
0.876528543084
0.99978187204
0.999966228743
0.999870215957
0.868368493649
0.84912068775
0.873427150474
0.858312454053
0.999822179372
0.999864963679
0.999896580985
0.846114162333
0.846977629504
0.85561517666
0.855710131291
0.999986272723
0.99995830799
0.999989324635
0.847108813637
0.848443926014
0.856224512685
0.856734309192
0.999987664523
0.999990331496
0.999991275979
0.848603128573
0.850894830384
0.856464663858
0.852889539422
0.999979006466
0.999988648032
0.999983895088
0.85072790117
0.84560409074
0.850754572771
0.839480468997
0.999994730456
0.999978116106
0.999983628173
0.840196296609
0.823868542861
0.835113239071
0.824578464022
0.999791225722
0.999981145699
0.999938815795
0.832261721086
0.800191438749
0.831164505253
0.825899714063
1.00000610099
1.00000140457
0.900444856876
0.885110148707
0.893691474456
0.885519183628
0.999999999049
0.999996857372
0.999994951618
0.878286300769
0.870980149245
0.8809538296
0.869763683021
0.999993123359
0.999988655167
0.999988326781
0.872095854868
0.8759003163
0.868758846685
0.86891230954
0.99997604578
0.999987105304
0.999988565795
0.873783689356
0.859234002818
0.868217219515
0.862817242586
0.999976229589
0.99999082388
0.999993540272
0.855796396725
0.856370980766
0.860354329644
0.859086147579
0.999984275421
0.999993828996
0.999993443967
0.85764017674
0.857540034506
0.860250454306
0.859888390168
0.999983078794
0.999988373193
0.999985287343
0.855437136839
0.851019382374
0.85808943022
0.849633780475
0.99997824375
0.999978558814
0.999974152638
0.849047450546
0.839091626178
0.845589746573
0.837651780276
0.999975304271
0.999974559037
0.999975189556
0.835141272209
0.827271344857
0.836625357463
0.836980596067
0.999950312799
0.999970291553
0.999975326314
0.833510523512
0.831113306113
0.843795515804
0.837551345416
0.999994793041
0.999996093278
0.999994659839
0.891208189773
0.882932360315
0.882799421902
0.876255812317
0.999987991734
0.999993216956
0.999991404027
0.878576305681
0.868624453877
0.872664629382
0.864289322388
0.999987664395
0.999989931442
0.999989305142
0.867514840073
0.866986793592
0.862618754552
0.859658060468
0.999986225498
0.999987577519
0.999986639234
0.866206021766
0.861790657699
0.858435627823
0.855927607537
0.999986146733
0.999985378126
0.999985499989
0.860238996354
0.857578318078
0.856042231482
0.855897217006
0.999981738497
0.999983101991
0.999982688582
0.857407420557
0.8599930805
0.854629732463
0.854233801356
0.999976661925
0.999980612289
0.999977171924
0.860622113504
0.849471246841
0.855449043963
0.847742338809
0.999974371042
0.999973367374
0.999975326772
0.844939911294
0.839587507584
0.844868533177
0.842384218044
0.999981285598
0.999978110002
0.999982790632
0.838828562079
0.83862988882
0.842907852156
0.843315775557
0.999988471716
0.99998577179
0.999991713045
0.845431095827
0.838252578296
0.848970065616
0.839082468254
0.881601455433
0.875049034084
0.999993214332
0.999994055114
0.871562935213
0.863285550977
0.861059729219
0.999992073906
0.999994885346
0.999994013378
0.861699405866
0.857738647378
0.858938107335
0.85400602542
0.999986831209
0.9999913144
0.999986912157
0.856750165378
0.855205722582
0.853805982244
0.852945630517
0.999975277303
0.999979061019
0.999972398118
0.855624961287
0.854875569956
0.853100874178
0.852860654616
0.999968480946
0.999966143483
0.999966717344
0.853527174911
0.852621658919
0.852304275009
0.851130495565
0.99997005797
0.999968644174
0.999972396339
0.852900155547
0.848991571574
0.851082407978
0.849171330438
0.999977467574
0.999976369808
0.99998060594
0.846699603121
0.843627660353
0.847663192919
0.845295523245
0.999985120172
0.9999843796
0.999987823898
0.843285345353
0.843887253433
0.845140170013
0.84531778763
0.999993503211
0.999989047938
0.999992867414
0.849487149552
0.83965915258
0.849893024748
0.83878350169
0.999987632959
0.99999176139
0.853097022834
0.852744664362
0.852555623514
0.999974135368
0.99998763145
0.999983191934
0.852592991729
0.852099868735
0.853111090672
0.854349227524
0.999960261325
0.999977679027
0.999972346224
0.852375099112
0.851941819142
0.855213359512
0.853272314331
0.999961944111
0.99996982758
0.999969870648
0.85125270473
0.848379588705
0.851932399226
0.848711906201
0.999970624775
0.999972349145
0.99997702151
0.847235812894
0.846396417521
0.847833008617
0.847260546658
0.999982581579
0.999984859245
0.999988464937
0.846317290641
0.845571250049
0.847263717632
0.845826102071
0.999990453856
0.999989474736
0.999993533661
0.850055360332
0.838609124587
0.849850336284
0.839466667432
0.99998008467
0.848846239749
0.999982574616
0.847917525143
0.846769205399
0.999987620199
0.846773766863
0.845308713034
0.999993207264
0.849446670219
0.840248505751
0.000226760152394
0.000472595471573
0.000100783993713
0.000202685801949
0.0542783031381
0.0520108648158
0.000452505537561
0.000339690053694
0.000205158322058
0.000165135090627
0.0534469783857
0.0510560158471
0.0518845710309
0.000200753293065
0.000196723778421
9.51173889858e-05
9.38334221677e-05
0.0559094189402
0.0535882680346
0.0546143586528
0.000403473556499
0.000975906545841
0.000349792075861
0.000911164448853
0.0591181777425
0.0553305039326
0.0572393885569
0.00133340336928
0.00112657500887
0.00120661124402
0.0010994316855
0.061680099276
0.0596677535212
0.0602356708509
0.000425736712671
0.000243889133763
0.000511870401414
0.000309910100348
0.0638433572574
0.0616107571944
0.0627979083845
0.000153953862146
0.00010876833599
0.000174435282455
0.000123917809714
0.0659579763069
0.064060276341
0.065420138181
0.000152838408945
0.000227231962408
0.000171803094059
0.000237309552227
0.069149316752
0.0667399696796
0.0681179195749
0.000282897749906
0.000371133184378
0.000281054009931
0.000325518045013
0.0748771496082
0.0680255257276
0.0720694925532
0.000508001828084
0.00101318953838
0.00042885665421
0.000732371303171
0.0506922351997
0.0504471946447
0.0510040220515
0.000144013338379
0.000287954659078
0.000188901713067
0.00032004599543
0.0512324158034
0.0516027419547
0.0521356755888
0.000257980936189
0.000169872340051
0.000138141975194
0.000132831070915
0.0524232274911
0.0529942870259
0.0540608693178
8.01727782116e-05
7.68897472383e-05
7.66247026125e-05
9.59992787173e-05
0.0550438046887
0.0551508440394
0.0556043028668
0.000186045272898
0.000401942740632
0.000181820277731
0.000291357061502
0.0566423190618
0.0561452231116
0.0569063334108
0.000633399372515
0.000933453619235
0.000385725691258
0.00058611530866
0.0597912907564
0.057629580065
0.0592924515368
0.0011490502683
0.000595082660546
0.00093634978981
0.000687874467161
0.0626893126311
0.0607274967767
0.0622614251953
0.000216012189661
0.000156843895829
0.000280719721633
0.000246224846469
0.0652193089126
0.0636939599843
0.0649280444216
0.00021607309728
0.000284830279977
0.000346140031356
0.000350684084773
0.0672523727471
0.0657591553647
0.0662770657959
0.000326149406545
0.000284807089947
0.000310681129228
0.000203600682501
0.0710651309845
0.065026690877
0.069185171284
0.000295409512894
0.000454916335968
0.000196726323194
0.000442429323309
0.0518462340547
0.0521188835976
0.0525691043668
0.000186556414416
0.000334325168002
0.000210166131512
0.000478799854604
0.0537249785442
0.0539953909139
0.0552738329876
0.000147374849117
0.000189281943479
0.000241197501313
0.000287286685447
0.0556848690591
0.0565713755103
0.057281693652
0.000157267481284
0.000159694663855
0.000271859751132
0.000322190640697
0.0567257007402
0.0576951435596
0.0580999425543
0.000243050939948
0.000301962911498
0.000375818643823
0.000389364288637
0.0580419108429
0.0585087982457
0.0590176374139
0.000334491650343
0.000367694626277
0.000385496730315
0.000392621313942
0.0594434158214
0.0596463434886
0.0597989607211
0.000404312065519
0.000469391418556
0.000419074469476
0.000587196419848
0.0614630865255
0.0595648285176
0.0610596782806
0.0006134855637
0.00058603970297
0.00109272531308
0.00114342521786
0.0648239365508
0.0636418801014
0.0646986821718
0.000420474179949
0.000339648044012
0.000424762077047
0.000253902138994
0.0654506070335
0.0649385646955
0.0648615291465
0.000286030564807
0.000207837703662
0.000256648888422
0.00021203707451
0.0677758195797
0.0632643011211
0.0667976222628
0.000209934563862
0.000534257473305
0.000213303619135
0.000644998502787
0.0563704094881
0.0569539983889
0.000270520266209
0.000319101654548
0.000373501774824
0.0583979471596
0.0582846420937
0.058965611038
0.000324098213264
0.000393771874073
0.000392442891448
0.000438802089707
0.0593162784683
0.0596263538942
0.060450425212
0.000420176582643
0.000409745196563
0.000437224456105
0.000406427189122
0.0599800379651
0.060923502336
0.0609315437068
0.000410718106701
0.000458090762984
0.000408817600835
0.000540372887519
0.060699700789
0.0612565452015
0.0616099450269
0.000447778319448
0.000553270126044
0.000574476366648
0.000503450748023
0.0620294545576
0.0618138213259
0.0625228029705
0.000668783791183
0.000676855047964
0.000571665363279
0.000532101672983
0.0642903474051
0.0635674707926
0.0638938834027
0.000430433241806
0.000293389351895
0.000364963448795
0.000253644517492
0.0642178672782
0.0637864657863
0.0638204821444
0.000240853349497
0.000162013048617
0.000170901308986
0.000129421899084
0.0664564181573
0.0627338674692
0.0666180502725
0.000198371602678
0.000741922817183
0.000189986655248
0.000817340997817
0.0614220525103
0.0619894995265
0.00037989759827
0.000317564840571
0.000391732258697
0.000297776109552
0.0618135382516
0.0626359340629
0.0622413131578
0.000309958219109
0.000584423643227
0.000268870420566
0.000486764483401
0.0618818288542
0.0613518657961
0.0621404918009
0.00127161406491
0.000618770879603
0.00110166919912
0.0004834075948
0.0631135223147
0.0628746463274
0.0631729608438
0.000329810469856
0.000319318602185
0.000247802995399
0.000240397356472
0.0635093318336
0.0634294176664
0.0635275899988
0.000258751164359
0.000223356799108
0.00023005593331
0.000229762119932
0.063814677494
0.0635115558385
0.06416170966
0.000189069921204
0.000158842837403
0.000202070225104
0.000187798875161
0.0671567385742
0.0638165743057
0.0680885209191
0.000221609927048
0.000849723554427
0.000268178946237
0.000887622751216
0.063152150289
0.000218852164757
0.0638504507895
0.00021813235548
0.000228582709942
0.000209781463252
0.000207944086578
0.0648338282372
0.000204585781106
0.000199369532026
0.000179238677583
0.000173962164977
0.0688360194782
0.000294475982964
0.000940301896801
0.000269304420455
0.00101394664936
0.998594443548
0.998264372244
0.853318618919
0.862717400717
0.998478088301
0.859361001572
0.998376857983
0.99864382043
0.998622690357
0.866637936864
0.868867111174
0.998586786609
0.998706803439
0.863808434993
0.998283510552
0.998118671732
0.869141039421
0.868227778416
0.998337693851
0.873582825973
0.998066589614
0.998315095832
0.998211066648
0.871692203457
0.874779560467
0.998414921853
0.875378069771
0.998100421872
0.998607999883
0.998592943308
0.871224862477
0.876101273241
0.998593636226
0.998606796668
0.876119875566
0.998711469449
0.998712589693
0.876539172635
0.877046800615
0.998755119945
0.998699027249
0.877177612295
0.99845396442
0.998379885461
0.862733972315
0.870927489819
0.998469246499
0.865360435343
0.998393673978
0.998446099463
0.998390563344
0.855844469795
0.852439591696
0.998451274503
0.858731189032
0.998393958712
0.998667123357
0.998702006124
0.873019699762
0.86893431249
0.998729085348
0.998649492326
0.867653733057
0.99863649058
0.99864988421
0.855719695837
0.863400218376
0.998633800341
0.998624956165
0.861598849467
0.998669809722
0.998439422178
0.84476540278
0.849748710804
0.998519073689
0.848488865585
0.998568942291
0.998805761099
0.998847799955
0.845778179981
0.850778088578
0.998922713201
0.849381844183
0.998739323984
0.998837516491
0.998720906699
0.852986468649
0.85398051738
0.998696560449
0.998873597033
0.851479399988
0.998990491855
0.999114336969
0.853363482544
0.854634492374
0.999081030858
0.999028003292
0.852212983307
0.998891884524
0.998857507696
0.84731385807
0.851121199995
0.998921631818
0.851521846547
0.998803949595
0.998806957351
0.998560345301
0.84810435337
0.852310413098
0.998709727663
0.852235711744
0.998693338216
0.999029686241
0.99911833823
0.853542495445
0.856542620772
0.999072716741
0.99909484303
0.853773569636
0.998953338786
0.998965401846
0.854138415664
0.856974702028
0.998879063921
0.999031718589
0.854171709153
0.998466094079
0.99840261479
0.849064324721
0.852096314229
0.998595492395
0.851976444303
0.998241570733
0.998322543823
0.997959416522
0.849755685959
0.852093792522
0.998169732226
0.852127604448
0.998104716831
0.998678181973
0.998883099938
0.853728503535
0.855142331427
0.998796070465
0.99876407423
0.852744922654
0.998527318418
0.998359545637
0.852126053879
0.854307394563
0.998342533083
0.998586917357
0.852398338358
0.997754222163
0.997765829635
0.850464262101
0.851553621081
0.997979361215
0.850830399202
0.997603763995
0.997592283658
0.997471393952
0.848646585855
0.843158206415
0.997501890791
0.847819929486
0.997496658851
0.997823222782
0.998106852783
0.851243578282
0.848027015324
0.998106133188
0.997783770768
0.8500469052
0.99756303775
0.997187348832
0.842088144353
0.843780598814
0.997424593205
0.997408535389
0.846524739077
0.997375818365
0.99738819301
0.833993482729
0.837276687379
0.997349467578
0.831853082589
0.997412788948
0.997427809955
0.997666758997
0.829029743094
0.8227308834
0.99755565885
0.827585200918
0.997501096138
0.99732229529
0.996992613846
0.83702034304
0.831645536283
0.997281412271
0.997063150394
0.832199598361
0.997420980482
0.997379507147
0.824093704699
0.82791566045
0.997584496882
0.997171574777
0.828467898844
0.996392317082
0.997363508388
0.8257122914
0.827425675723
0.997331748115
0.826761814445
0.995947430088
0.993373980761
0.988293123325
0.787422242244
0.813339402665
0.809524183533
0.991067275454
0.987295620431
0.996600221482
0.997297122131
0.830205186801
0.829521302661
0.997428306355
0.996654417205
0.827186481401
0.993411837154
0.995135573917
0.814126875067
0.793771514792
0.994363509551
0.788364540105
0.993960994988
0.999054619686
0.999149563823
0.898851125367
0.898047251821
0.999141258381
0.896181215656
0.999077756733
0.999018273054
0.998953771358
0.893099231557
0.886540467003
0.999073981579
0.998929632837
0.891698517889
0.998902847769
0.998914534189
0.896287396089
0.891715183562
0.998776113302
0.894562203516
0.998980131797
0.998833847209
0.998594421796
0.887170735415
0.888838457524
0.998745983633
0.99868806302
0.891202977923
0.998692134256
0.998798296569
0.872868727583
0.881320279929
0.998647072943
0.998809474579
0.876610415077
0.998575076144
0.998423354248
0.870683592155
0.871469357095
0.998490785666
0.998431490449
0.873652390993
0.998531428169
0.998485847378
0.882036133786
0.875975996653
0.998644039135
0.998348859572
0.877067623362
0.998382249346
0.998053935887
0.871331565645
0.872259527996
0.998239228086
0.998156505223
0.873499174116
0.998347903889
0.998426742716
0.873941811267
0.871975264138
0.998455252143
0.998345918185
0.872571502252
0.998356886977
0.998553362924
0.875856766606
0.87325662923
0.998537246841
0.998363880967
0.873244577375
0.998281008524
0.998073723916
0.870763535797
0.868720611273
0.998244688676
0.998153980461
0.871149792585
0.998353479113
0.998318534476
0.871144659219
0.868702060474
0.998396057619
0.998251527291
0.87132213931
0.998352803168
0.998533878122
0.869661312382
0.871606590707
0.998464955045
0.998363230871
0.86914282207
0.998360040623
0.998373561621
0.864649000642
0.861273762854
0.998399373684
0.998349073489
0.865339310158
0.998306047156
0.998362074844
0.87018372004
0.867059665748
0.998369237387
0.99832839067
0.868378349559
0.998272160559
0.998259206227
0.862335409462
0.865135915747
0.998244235169
0.998283607932
0.865780134004
0.998458008678
0.998392135808
0.85368066352
0.857991478727
0.998490471483
0.998369688946
0.855719606023
0.99857075322
0.998747194372
0.854800558748
0.858067650304
0.998632241583
0.998684796567
0.856762959458
0.99830395675
0.998250510487
0.859336340102
0.858665155349
0.998246525122
0.998290364635
0.857107283681
0.998391569458
0.99846937026
0.858159650406
0.858575894875
0.998506588168
0.998359141839
0.857436666181
0.998731001526
0.998769959063
0.859026129437
0.85928142176
0.998765193715
0.998737871712
0.860561946659
0.998701871031
0.998639222793
0.858796519244
0.859487096468
0.998727990683
0.998596262227
0.860415661501
0.998578855539
0.998533731172
0.859525685812
0.861538980067
0.998576542609
0.998522144933
0.860948849979
0.998545151391
0.998291238938
0.860524577142
0.860837669709
0.99841522281
0.99844199389
0.861421133757
0.998178193917
0.998478327968
0.852638085967
0.85712395278
0.998264220795
0.99840257792
0.853949714149
0.997913518502
0.997681394791
0.851928086448
0.850777300735
0.997999209295
0.997566913659
0.85260884066
0.997981646558
0.998134302379
0.857885359636
0.856222874987
0.998208408221
0.997971607597
0.854537982848