/*--------------------------------*- C++ -*----------------------------------*\
| =========                 |                                                 |
| \\      /  F ield         | OpenFOAM: The Open Source CFD Toolbox           |
|  \\    /   O peration     | Version:  v1906                                 |
|   \\  /    A nd           | Web:      www.OpenFOAM.com                      |
|    \\/     M anipulation  |                                                 |
\*---------------------------------------------------------------------------*/
FoamFile
{
    version     2.0;
    format      ascii;
    class       volScalarField;
    location    "2.3";
    object      p_rgh;
}
// * * * * * * * * * * * * * * * * * * * * * * * * * * * * * * * * * * * * * //

dimensions      [1 -1 -2 0 0 0 0];


internalField   nonuniform List<scalar> 
28582
(
19556.7290769
19558.3911887
19556.4047955
19558.3759175
19555.4069912
19558.1381283
19553.3666004
19556.4572882
377.364749505
433.653967139
0.0176464385142
19554.7652174
18620.7067839
18604.996544
19558.5305209
19558.8322802
18609.1687092
19558.6093634
19558.6026486
19554.6719416
19560.2388237
19561.6797357
19554.0949846
19560.638667
19562.4868778
19552.6066543
19561.5449925
19550.5452439
19560.8631596
455.349254729
0.0338953561881
0.0162436555041
19550.9536846
19551.7567046
18569.3887559
18483.3194261
19550.0497862
19563.4680919
19561.1598998
19563.8100574
19560.042859
18638.5051068
19560.0856993
19563.4948633
394.809445352
437.672495269
0.190944268689
0.0067439661238
411.804708013
0.0174988979695
19551.9394916
19552.1953706
18601.4288602
18586.3048608
19551.3322596
18606.1051201
19552.3522677
19553.2175898
19554.2205271
18592.8849221
18607.3967046
19553.999955
18618.257466
19553.1275565
19556.1084725
19555.2377361
18609.3577499
18607.5541453
19554.958821
18612.7865373
19556.1622024
19558.6141255
18618.6928299
18621.7665038
19557.318956
18614.4967434
18615.4863311
19557.3152837
19558.951992
18623.2443889
18617.830525
19557.2735325
18596.8885184
19557.3621516
18616.753437
382.63826908
0.749270453342
390.361247796
397.534057038
0.683333530305
0.902048633468
459.23281935
0.528807050454
0.00289909369645
483.341719363
1.17905754899
484.686425395
0.193080274667
19548.0996019
19548.7020716
18553.8360618
18477.2316811
19548.2594659
19547.8919382
18497.1394183
19549.225165
19548.6899583
18467.0229495
18554.993343
19548.272441
19549.2966281
18573.9356352
18529.5574571
18547.8026115
19550.5986718
19549.8175612
18575.447313
19549.692136
18593.7653097
19559.879262
18622.014471
18634.0747781
19561.5346288
18631.2012849
19561.3106561
18637.1048438
19563.1127222
19564.4421336
18639.199242
18649.923266
19562.9539505
19564.8141976
18639.6632161
19561.9150554
19560.4328059
18638.693245
18625.3889757
18635.0707413
19561.6380195
18645.8906037
18652.530494
18653.5228395
19565.0913492
19563.1928377
18656.4096727
19564.9166036
18648.5146822
19564.6327834
19565.9660626
517.865855821
0.0278212248911
19552.6875954
18599.073003
19566.24292
19568.3073944
18638.191886
18640.4706936
18627.5619376
19569.7561034
19570.2214526
18611.0634217
18602.0665991
391.707438915
521.702116431
561.78094597
1.08556608233
2.16008221091
2.72465672953
598.566164733
636.192029723
19550.8072094
19551.4709198
18522.5138625
18579.7902366
19549.8419253
18546.7324583
19551.8693798
19567.8464197
19565.8967801
18645.3349231
18655.6613455
19567.5103743
19566.3753768
18649.8699989
19567.8829603
19566.4495575
18660.2262506
18634.6027371
19566.3914017
18652.7322732
19567.8609627
19569.1017509
19570.6859628
18629.8324434
18634.7541786
19570.3548143
18632.9169117
19569.1900791
19572.6848156
19571.7689312
18629.2319764
18606.2310843
19571.6214594
18622.8096888
19572.8480707
19573.5391093
19574.2553753
18607.1152896
18603.9434274
19573.8442148
18617.8345639
19573.8118547
19569.4316535
19563.4347824
19560.7469717
19557.325753
215.839749665
250.436844789
244.273720948
287.167584541
300.015173633
0.146573895532
0.136008381368
0.102619001221
0.0691386127159
0.0446390018055
0.0600525336247
19571.3782256
19570.2106385
19180.4334035
19168.9316601
19572.5125078
19215.7477229
19568.2864586
19565.988249
19144.9193144
19047.3818959
19569.6151676
19566.1927631
19565.6418355
19188.2406455
19237.5126805
19082.8922155
19082.3622769
19563.4087067
19559.5669811
19191.9883315
19065.4898298
19042.9421135
18907.0312177
19562.5836102
19560.2699666
19046.2176092
19032.3209773
18913.6880698
19557.87022
19558.6729101
19556.4021307
19003.7459908
18858.3106028
18909.2758869
18757.6055719
18893.4972812
18741.5650753
214.869129743
213.95105376
208.400509287
-0.0397669238912
0.0567638000819
-0.0236138038608
0.0768032283469
0.181683257637
0.412300898583
0.209672275372
0.412583830384
217.89294197
228.718315431
222.364249154
230.061475223
239.063788523
-0.0019636150293
0.162644555143
0.0796443886182
0.240496866423
295.984367867
268.734199062
306.981570239
0.356554976922
0.460073795838
0.476691326854
0.587619543471
258.376192077
268.862088602
0.157844380212
0.400793800455
0.598397990882
323.848960106
299.162892497
328.732295006
0.751752896961
1.03132667322
1.05640393692
1.50290414648
19569.8186927
19571.2810039
19107.9513584
19185.4759387
19570.9881555
19179.0995658
19569.3199041
19569.3306582
19569.6214666
19171.9854549
19089.1177535
19570.3590856
19567.8094122
19168.042463
19573.8541524
19571.2986001
19200.3269785
19229.1941626
19572.0051272
19572.3471223
19271.6041309
19566.6611669
19568.5205655
19067.289308
19105.9142663
19566.9146653
19567.046475
19115.3868479
19565.555386
19564.7151739
19073.651973
18989.3117501
19565.6914633
19563.6663472
19088.6505811
19568.9713362
19569.9942719
19191.2174139
19109.0848848
19570.6559251
19567.5248569
19179.0173918
19569.5979215
19571.1841028
19203.3230534
19147.591725
19570.8767251
19568.9855202
19183.1308208
19567.2049005
19565.3491177
19067.0035792
19061.4735865
19566.1172072
19565.1165491
19132.7130299
19567.551109
19564.7747302
19090.0614157
19035.59631
19566.6850504
19564.6558164
19138.0691314
19566.1592264
19570.6752874
19101.4817048
19114.6155488
19568.3075827
19567.7973957
19142.0268669
19563.8112989
19561.5618542
19015.4084342
18794.1024205
19564.4075017
19016.9272428
19558.4769902
19564.2644322
19564.3329435
19045.7830359
18918.4080016
19565.4236612
19561.7456801
19090.4133984
19562.1998943
19557.1634976
18755.8698593
18817.7321131
19558.544786
18980.6378383
19556.6587353
19562.1829892
19563.8724153
19016.5568156
18942.6760634
19563.4662605
19561.4661874
18995.700739
19562.2302254
19562.9648634
18980.2775946
18941.4193356
19562.7629601
19561.0133079
19006.3658201
19560.9654333
19558.9278279
18907.4402358
18851.1342515
19559.7376469
19558.3446682
18977.7058844
19559.1221304
19562.7447346
18869.4062454
18859.3874139
19559.9933855
19559.6360295
18924.2370623
19557.8989181
19556.1804094
18771.9051384
18685.3398077
19556.9470382
18873.2600247
19554.3622892
19557.9998416
19558.6247332
18818.4851427
18787.7130003
19558.1283444
19556.3285976
18884.99887
19557.1306023
19554.2705159
18684.9450925
18676.3875829
19554.2186458
18855.7781287
19554.0549339
19555.6493032
19557.9766776
18775.7814454
18728.1214563
19555.6203261
19554.8910166
18811.0862584
19554.0544747
18665.5148798
19553.5658018
19555.7751882
19557.7904411
19559.8783659
19562.4847979
19562.1890688
19560.497616
19555.4259187
19557.7782792
19560.2832938
19563.5044743
19563.0118732
19560.8306854
19542.9289959
19549.9493685
19554.5291189
19558.2251763
19560.5834229
19561.7674291
19562.0753628
19560.4086752
19545.4503166
19551.3762064
19556.2560993
19559.00409
19560.8612705
19561.9484718
19562.2003193
19560.4475473
19550.4299114
19552.9755259
19556.407063
19559.0747307
19560.9718503
19562.0980354
19562.2878816
19560.4914207
19552.8997327
19554.5706168
19557.1846347
19559.5351794
19561.2578851
19562.2626591
19562.275881
19560.5573766
19561.4825384
19562.3910937
19562.2558666
19560.5320425
19538.3605821
19547.2759829
19553.1123916
19557.9369422
19561.2670701
19562.7894481
19562.9752036
19560.9590107
19543.1101879
19549.2795125
19556.7914157
19559.5807501
19561.7173816
19562.9906107
19563.1295059
19561.0145672
19549.743636
19552.6419109
19556.1484219
19559.3549562
19561.7786945
19563.1465561
19563.2898859
19561.0915594
19552.3268867
19554.210923
19557.1788312
19559.9510695
19562.0945103
19563.3305554
19563.2853524
19561.1138705
19562.2942671
19563.4345499
19563.1535384
19560.9590665
19535.1521325
19546.159596
19554.4830591
19559.436847
19563.282766
19565.3878637
19565.3269987
19561.6566868
19540.1919322
19548.5419268
19556.2870065
19560.1958927
19563.5380397
19565.5946337
19565.5604345
19561.7820388
19548.6529893
19551.9422685
19556.1547393
19560.3282281
19563.8051201
19565.8372438
19565.8166104
19562.0211302
19551.3323457
19551.0607751
19553.4063493
19557.1022437
19560.8679497
19564.0995033
19565.9634535
19565.7392401
19561.9742236
19554.3867428
19557.5312005
19561.1375645
19564.3669791
19565.9831915
19565.2866837
19561.3706762
19565.9785976
19564.9282007
19560.9845505
19536.0210857
19545.8540321
19552.8034643
19559.0921778
19564.3241259
19568.5261697
19569.6716896
19564.5062675
19537.6399963
19540.4131654
19547.9185294
19553.8449556
19559.4589508
19564.5845643
19568.8080482
19569.5852704
19564.2145943
19554.12378
19546.3324479
19545.7520209
19550.0006339
19554.6712586
19559.7880151
19564.7133676
19568.9246848
19570.2120619
19564.8754692
19549.7199359
19548.7595945
19551.3687761
19555.5112748
19560.3285767
19565.032044
19569.031053
19570.4619434
19565.2082923
19552.031062
19555.6619616
19560.3483524
19565.3439125
19569.3668035
19569.7372149
19563.4432296
19569.9076676
19568.82655
19561.9198896
451.912591654
461.001545499
482.408804509
514.095287803
597.161896088
661.012079565
743.879610891
853.648512596
335.768164075
405.135251702
437.072995087
458.011862816
485.502327365
525.087103507
591.827778606
656.482204846
762.621911019
854.628047558
351.997868004
398.912022697
418.386309817
433.751864082
456.684905435
507.988747142
575.803651082
632.527722797
727.500977539
838.712611283
392.47348893
406.240175503
410.194074484
435.868060983
486.304999412
551.261676004
605.90242828
688.399071412
811.038375289
407.434741142
436.398796354
471.106660884
527.917359428
592.425429265
702.748749196
800.212793755
591.425629059
713.316424625
779.262591038
0.0104355913176
-0.040656238455
-0.0266746030603
-0.0579309462588
-0.0133270247029
-0.0300442133183
-0.0672905782811
-0.108201502992
0.0716346242573
0.662576485619
-0.00635130057859
-0.0290802146347
-0.0365175465542
-0.0505365818743
-0.0303591149683
-0.0335252943603
-0.0653905620996
-0.0979231922781
0.164499558112
0.603580526432
-0.0101014754948
-0.0488864128306
-0.0409150456296
-0.0206283093567
0.00692661137302
-0.0130085964724
-0.0379598216035
-0.072474841275
0.12814067728
0.447422279858
-0.0391449750013
-0.0119840523319
0.00602797210229
0.0174299375431
0.000451083108748
-0.0243375800209
-0.0662733377406
0.0801531477328
0.378760658367
0.0147582596421
0.0183520541792
-0.00346950158034
-0.0297303243651
-0.039760628657
0.119626529425
0.397113974611
-0.00832952092694
0.115644355169
0.523792735141
19546.3018022
19543.658142
19547.5336555
19541.0243045
19544.9547497
19542.0708942
19546.1545634
19552.0884335
19550.7050745
19552.7095373
19548.8473794
19551.2875651
19549.3847004
19552.0269687
19548.6844357
19547.1675079
19549.4591745
19544.5965729
19547.8683587
19546.526261
19549.1798278
19553.0974163
19551.854456
19553.8024155
19550.7194925
19552.5443041
19551.4251817
19553.3745013
19543.4212753
19539.0108756
19543.872937
19536.5547099
19542.3861156
19537.1586935
19543.0360888
19550.4045099
19547.6253542
19551.4224184
19546.5756757
19549.3388287
19547.18985
19550.6051225
19546.2468222
19545.8453661
19548.4905664
19540.4019009
19545.0799463
19545.1188427
19547.6557966
19552.1510239
19550.8134366
19553.2498229
19548.8964839
19551.6976446
19550.2327172
19552.7187039
19541.5156381
19537.0075812
19542.7577989
19535.2703398
19541.7326223
19537.1814989
19542.8730666
19549.2760076
19546.7386728
19550.6233463
19546.3750985
19549.5569028
19546.9052925
19550.7917271
19544.8267421
19544.4054095
19547.2151962
19540.8202319
19544.9362059
19543.8613468
19547.081739
19551.4095898
19549.7498978
19552.2410306
19548.5011167
19551.7291304
19549.9701509
19552.6889182
19531.9678717
19535.0625113
18209.9808588
18272.0128911
19541.2256363
19538.2093635
19542.2439616
18222.1854332
18350.0266635
18275.9938654
18364.0708638
19549.3715874
19546.5070168
19550.0203336
18373.262495
18412.5188022
18374.4144003
18416.8040208
19556.1415447
19553.0857403
19556.2329029
18430.158747
18500.7811051
18422.5475688
18475.0105456
19561.8834005
19559.1329273
19561.9014704
18510.8947086
18477.2904189
18488.9281251
18487.6888559
19566.6450674
19564.454592
19566.6928113
18473.776197
18472.956239
18489.378154
18481.3354433
19569.9964891
19568.5778639
19569.9784403
18474.2406532
18479.7088167
18485.0975735
18499.8615917
19567.6247094
19569.6283248
19567.2522776
18483.4089746
18180.6824471
18457.4617159
18071.4085633
19560.7395903
19564.2415846
19560.9926015
18016.2638394
17696.6572148
17954.4670146
17771.411244
19554.6053594
19547.9219533
18863.4823252
18496.693585
18796.246479
18555.1431027
19537.3563126
19542.4929537
19541.1148579
18401.1760853
18298.9105918
18488.0051165
18403.5033494
19544.3036688
19543.2387234
19546.2986994
18300.6761411
18375.6531592
18392.6098617
18438.6247229
19551.0155252
19549.093962
19551.6461985
18381.2502902
18424.5581152
18435.1192589
18478.39206
19556.8138701
19554.2537966
19556.9744206
18429.7517197
18475.3093386
18475.7892971
18498.8343429
19562.1360248
19559.5505504
19562.1691073
18486.563647
18488.7680627
18498.581717
18503.7484538
19566.9412543
19564.6379309
19566.9574979
18491.1627463
18486.3237576
18502.5291472
18512.1729303
19570.1030638
19568.8941478
19570.2969838
18489.5585079
18508.0429853
18515.2092937
18540.6909826
19567.1484406
19569.9229163
19567.4447314
18458.7573137
18058.6061556
18505.7415255
18115.1174132
19561.2077005
19564.396979
19561.1191988
17953.4863394
17813.3013784
17990.7881473
17808.4121074
19550.005818
19553.7787278
19550.8549171
18776.874403
18566.5844969
18731.5842503
18580.1786614
19545.0957905
19548.6306423
19547.3651044
18513.1955557
18433.5476144
18547.3370456
18505.8149761
19547.8161225
19547.6032496
19548.9146496
18420.5023287
18460.7856794
18494.5842498
18527.0315794
19552.315926
19550.8322679
19552.921027
18457.7748398
18500.4501953
18536.1216813
18560.6099923
19557.2713897
19555.2081468
19557.6771143
18498.9128805
18517.4164799
18567.9024424
18578.7375985
19562.322789
19560.1775378
19562.6492118
18513.7165903
18512.8618434
18575.4803919
18566.2397578
19566.9202324
19564.9710849
19567.12499
18509.7714768
18518.6290717
18557.2934904
18560.3398173
19570.4782946
19568.9949148
19570.5220038
18521.7497691
18546.2704099
18561.8593152
18571.7446683
19568.0697002
19570.5062586
19568.5137335
18529.5855135
18160.9812416
18568.9936048
18279.244625
19561.1477298
19565.2870112
19561.1539965
18018.4972764
17784.0452303
18125.4296364
17775.2942548
18732.9370897
18587.910448
19548.7301291
19549.611276
18567.7046174
18509.8980535
18470.4402318
19549.816241
19549.7962391
19550.3881112
18516.0219448
18526.4346303
18562.6794654
18478.472881
19553.3636731
19551.7182506
19553.5270539
18551.7136179
18562.5321395
18542.2071878
18531.1557681
19557.9072061
19555.5998776
19557.9132755
18571.1682758
18580.1137608
18550.6707461
18573.4280636
19562.7639263
19560.3559391
19562.8781064
18577.6866594
18570.5573089
18580.856767
18596.4905267
19567.0982508
19565.2056741
19567.3342942
18561.9841602
18564.7300066
18594.2909854
18596.5812287
19570.5764067
19569.1207179
19570.5353635
18566.3611862
18575.2843412
18597.6764572
18607.0771172
19568.5386254
19570.2498225
19567.9781457
18580.7853526
18304.1307223
18592.7969097
18254.095295
19561.0378037
19564.5414
19560.7314127
18148.4626412
17775.5863938
18106.311193
17789.4095458
19553.7577779
19554.2333606
18544.1636446
18529.0144169
18585.6890069
19557.9262998
19556.0798359
19558.2513003
18549.4102691
18573.1558723
18598.7555609
18611.9619998
19562.9607685
19560.6029181
19563.2199923
18581.0811768
18601.8692729
18614.7007331
18630.9726161
19567.4674205
19565.7127265
19567.9572167
18601.9165678
18604.5828614
18632.492152
18645.4347976
19570.5407858
19569.7515366
19570.4745413
18605.2341628
18613.6227385
18644.7494845
18605.1828196
19566.9916826
19569.2024051
19565.8899291
18579.712978
18209.9304306
18526.3026019
18117.9938613
19560.2946631
19562.3931997
19559.8548178
18075.9275691
17812.4361446
18024.6441624
17827.7261678
19568.2425016
18648.941268
19570.3764787
18644.4057354
18592.2290445
19565.470546
18516.4131538
18130.1571802
19559.7337122
18042.4876083
17837.6732169
0.708775053999
0.220893267949
0.427752942167
0.067761514895
442.613936975
439.187508967
0.0759142008336
0.0915279789818
0.0695297571432
0.0738990486341
451.457692468
448.121338638
449.029752885
0.136753187086
0.110226281196
0.167558915412
0.284396293575
480.717968562
459.908014943
476.878061324
0.0519844266112
0.0233889115401
0.227842729907
0.135181980332
488.471136505
488.779418719
499.52082003
0.0858177385522
0.19164181673
0.149733285838
0.122454324221
555.548902374
523.245061583
556.791869378
0.240582087288
0.322238681023
0.118518052005
0.0638574611426
631.275443369
595.814396683
631.916447162
0.39433926612
0.498667008736
0.0813190777461
0.157128103323
693.228404441
661.033323667
694.755785628
0.582919845387
1.38041812475
0.682111863575
2.46253667887
824.961145782
760.848030842
837.20256492
3.96584123659
8.80365390842
6.19832063806
10.1813763674
837.853664149
855.874247688
834.234468576
12.9779822116
15.125927851
13.2316529294
14.6592626198
372.286527562
342.953510844
375.471790095
0.251626319047
0.0900304895516
0.447922933874
0.264320493085
429.943341799
400.601277717
418.795769962
0.0720682307127
0.0721957808005
0.110272071914
0.0543374252289
447.614484053
428.660503967
436.89852482
0.124456918865
0.250967963848
0.0766431284079
0.0571525204939
474.358662199
450.088802263
457.690348695
0.271732394686
0.230810203577
0.18160930239
0.218398005176
501.871032224
474.766014179
494.100467844
0.188240828632
0.172797395795
0.373241920456
0.222826244815
557.056255419
521.868431947
552.267166767
0.065658747172
0.0459932432696
0.190846654629
0.0402124353224
625.850423458
585.912692253
616.643458868
0.00841637867831
0.114291077508
0.0676077883291
0.16066799743
692.667929177
645.847069987
680.74319487
0.566607938574
2.816518267
0.837635828643
2.4787078819
839.89547575
750.05795739
829.180929809
6.8898732635
10.7113996528
6.26315531929
10.4258516261
834.554545633
848.010047211
833.319566887
13.1342868924
14.1435760518
12.9135035809
13.9096618983
378.82830705
357.740703966
377.67536766
0.9673910794
0.577738671479
1.31412405527
0.617154700424
412.122926927
397.536397563
404.483289691
0.145336959823
0.05081886152
0.142626282665
0.0411006309258
427.590365272
411.915373461
413.839785654
0.0410995843231
0.0254453920919
0.0305879111513
0.00506316674832
442.007388319
415.244275583
423.897955813
0.00534370848774
0.116594756978
-0.00329579464418
0.331858831583
478.975880412
437.931484448
460.77272264
0.369762280515
0.609365509886
0.647408447693
0.647516181807
542.894626599
491.223703706
527.336721243
0.376656352228
0.455048917195
0.616586484188
0.48981064878
606.178634879
561.50480212
590.350475996
0.245817581959
0.395369128495
0.516064344076
0.323045401103
666.844550656
617.097342176
650.260468164
0.591409489931
1.87607908919
0.531943326704
1.36185614433
808.889079795
703.585149155
787.162955311
5.01634025798
9.41571345074
4.17997380459
8.41875744675
826.860558619
824.015753112
814.016041799
11.9598802695
12.8963607908
11.1813517094
12.4126988971
399.0004046
399.434525948
0.0445818033955
0.018723087942
0.388770054951
405.151663429
397.619181051
403.362806722
-0.00667291880309
0.0178092336347
0.409274779251
0.603153252551
420.341638291
410.741248103
423.029909837
0.273740132954
0.540739529409
0.747709499158
0.644637920848
458.613571474
438.642975578
458.143366014
0.571056524621
0.548468608305
0.465638022315
0.246082131095
518.766520035
479.295280132
507.619551904
0.334043443053
0.394361333829
0.143194036637
0.114057335557
579.445895726
538.409648921
568.52661579
0.226882628587
0.193823023752
0.185890570142
0.0880707326623
639.023933813
596.76685708
631.954818369
0.0889140140438
0.917725005322
0.369870913171
1.24538805253
771.437625184
688.783765392
770.438739613
3.42473143683
7.77893108888
4.10429607027
8.00686645445
801.795897507
804.338729212
795.285005618
10.6035602032
11.9124861693
10.5071903293
11.7067054773
420.994074011
407.522579602
0.786229879995
0.456702616819
0.584518135438
0.111911659751
451.021194292
419.670170919
437.139695171
0.047948228437
0.0158517842255
0.0116285354327
0.0154579798007
495.898236327
459.878024107
487.660514211
0.00918960378596
0.0119512948528
0.0158538464054
0.00401135549499
561.047499148
521.138390368
553.706467644
0.00692812436756
0.207737595284
0.0918062046102
0.813416659439
631.715183869
589.453921954
641.314519369
0.700851907066
2.36387567145
2.00627129657
3.71195277957
776.38798177
715.667669206
778.005723303
5.39970885477
8.78376293866
6.55915362031
9.23010624424
791.658400593
794.473410288
786.890119091
10.681324059
11.7800131237
10.7255729911
11.7357137314
555.205983156
2.20120594741
645.184303424
2.72426613967
3.96946239591
2.71597713528
2.72186847616
765.183245208
6.43222910377
8.95065727204
4.62620083715
7.90004930319
774.946995896
10.983371421
12.4421550702
10.6319036242
12.4653123953
19531.3734799
19532.19838
18078.0337358
18163.0984954
19532.5992515
18194.3077776
19529.1367523
19533.1654368
19535.4760973
18187.2133047
18153.1182081
19533.7431613
19532.5536767
18223.7599589
19537.6019447
19534.5669532
18241.1897192
18225.8036649
19535.0034885
18288.3059313
19536.3176442
19539.5861724
19541.1825022
18305.0255839
18327.0698977
19541.3230062
18302.8785566
19538.6486829
19538.2299486
19537.0961622
18247.3223828
18282.4567791
19535.7439222
19538.6599897
18306.6899107
19540.1260969
19542.9420591
18337.1951865
18331.064302
19541.7047706
19540.7889787
18316.4850807
19543.2107138
19543.3059659
18396.1322006
18357.6887435
19542.343242
18366.7370189
19545.5652956
19544.6884438
19548.9202644
18408.0311661
18399.4466828
19546.5136456
18375.7084842
19547.401668
19544.8474548
19544.6725916
18371.9414436
18395.030342
19543.226806
19546.5882824
18383.5128022
19546.5043688
19549.7203636
18407.8055691
18414.9508489
19548.2287527
19548.2707485
18389.9396085
19550.5719024
19550.4875816
18468.0716857
18429.7102957
19548.438646
18456.1905158
19552.4653519
19552.9660064
19556.2059791
18490.8624022
18496.8516207
19555.644224
18483.5564939
19554.4371036
19551.769686
19551.0622379
18430.4493832
18443.4466157
19549.8707831
19552.7508518
18448.1028463
19553.6756685
19556.2608563
18486.8662064
18463.9140954
19555.99651
19554.6926693
18470.8433661
19559.7382679
19558.0175091
18515.2340031
18496.1357757
19558.1671316
18488.4161577
19560.0129808
19561.2742147
19563.0001039
18505.2695832
18491.8082668
19562.6820904
18488.6158891
19561.5712708
19559.7520957
19557.7476633
18488.224657
18498.6039077
19558.0164959
19559.4670505
18487.0127347
19561.4838799
19562.6900818
18496.1317599
18496.41121
19563.2970524
19561.1393641
18491.1535097
19565.4707416
19564.5215799
18478.7078404
18486.6989698
19564.0689566
18473.4663948
19566.0236916
19566.873695
19568.6973516
18478.5931859
18479.3089765
19568.2811967
18474.299654
19567.4602127
19566.2857363
19564.3120901
18489.8488879
18492.2364698
19564.8810838
19565.9594705
18476.246444
19567.4790189
19568.8683445
18483.0273533
18488.3128286
19568.6168893
19567.5499168
18477.690246
19570.8909832
19569.9984786
18479.2063625
18479.2980672
19569.6757244
18477.7783952
19571.3208206
19572.1556535
19573.6065412
18479.6107798
18493.1241503
19573.5798147
18483.937754
19572.690937
19571.1406258
19570.2475064
18483.1913627
18497.043107
19569.9571853
19571.6228119
18481.3528645
19572.2597189
19573.6216367
18501.7527893
18499.7646225
19573.7414278
19572.8240069
18487.8795791
19572.7495212
19574.1250864
18465.3186452
18489.2397202
19574.1587868
18447.1644182
19573.0708162
19569.0133725
19564.1988304
18352.1311059
18121.5015939
19563.6546624
18298.5473366
19569.6214357
19571.9754124
19573.5973205
18478.5708328
18386.713905
19573.8483981
19571.5622338
18415.1157539
19567.9024601
19561.9934606
18079.8592809
18239.5057164
19562.3727229
19567.3804425
18257.8467968
19553.8379405
19558.172411
17874.660465
17987.2933079
19558.2296139
17910.4141259
19552.4364779
19549.1592095
19549.5393304
17803.5957826
17649.9239409
17845.150398
19550.5002104
19547.43966
19553.6031942
19557.2280891
17966.3604535
17862.3571568
19557.1443531
19553.8305009
17914.7380363
19550.3868999
19554.7764413
17723.2142592
17855.5682449
19551.6773558
17878.5599065
19552.3489017
19550.3023327
19557.0210735
18477.298987
18636.1596084
19547.9497543
18770.6766121
19553.2364719
19546.0283368
19538.2766647
18315.0029768
18268.4524814
19540.2188226
19539.6930319
18617.3980376
19550.4117273
19554.4612609
18626.9245042
18516.3575482
19548.7086266
18758.8532234
19552.0828866
19547.2650087
19544.2090821
18327.5715966
18418.6312763
19541.8396191
19544.6910555
18631.9676335
19537.0636763
19536.5867297
18174.6389634
18207.4261097
19533.4051754
19535.5227502
18363.7123682
19537.9292794
19536.4086079
18187.6929506
18267.3754468
19534.5757808
19537.7424648
18327.7009346
19539.4016517
19542.8050328
18268.0287369
18336.5030204
19538.2183194
19540.1621603
18405.2173726
19539.5582683
19541.4161567
18306.6005279
18335.9132088
19539.3501001
19540.1394938
18369.2093122
19541.5247876
19537.7269713
18302.6831441
18310.2083478
19539.2999478
19539.3337019
18359.1283263
19543.0660183
19543.2983571
18344.9756445
18380.4544115
19541.2069733
19544.5143337
18364.928953
19542.0318491
19542.5140175
18345.1758249
18387.4892343
19540.3015291
19543.4209948
18390.1894431
19543.3553926
19546.6586067
18400.5729709
18419.1151453
19544.7709189
19544.9094316
18392.1503128
19547.1703419
19544.9018565
18395.9112716
18413.8283399
19546.5739882
19545.9629392
18419.8002771
19548.4990553
19549.5927625
18419.047171
18430.3399423
19548.2336219
19549.9486224
18420.0126233
19547.6925911
19547.9275751
18430.6209015
18439.1846457
19546.2665887
19548.9423229
18439.6873581
19548.9510465
19551.4609241
18447.1735345
18467.0105327
19550.2925673
19550.1688756
18439.7814735
19552.8826335
19550.9616224
18447.3622955
18453.0424942
19552.5187967
19551.4752686
18459.0604478
19554.400015
19555.826203
18466.1935539
18478.5933498
19554.2048011
19556.1313509
18464.047771
19553.1616662
19552.6865785
18467.9272084
18478.2764669
19551.7432146
19553.982554
18473.6855801
19554.5660198
19556.9505764
18482.389713
18493.751275
19556.1042208
19555.4686071
18474.964124
19559.6270063
19557.5009624
18495.5914941
18487.9443626
19559.513669
19557.96322
18488.6411881
19561.2203346
19563.0598258
18494.7208584
18498.4369817
19561.5127619
19562.8573836
18491.9648418
19559.4080189
19558.4077437
18492.3854419
18502.7762525
19557.7629083
19559.9712404
18492.9302046
19560.9763769
19563.0641976
18497.8707612
18507.120654
19562.5461221
19561.5963072
18493.597516
19565.9524959
19564.5455389
18495.1039699
18497.4429745
19566.1399649
19564.4806751
18491.04521
19567.4582166
19568.9342142
18492.44838
18502.1827132
19567.6675365
19568.9347191
18493.7321973
19565.6456499
19564.4776181
18498.9215215
18509.0444846
19564.1279491
19566.0142618
18494.9742381
19567.138025
19568.9965241
18507.0444413
18512.9272127
19568.6644955
19567.579577
18497.0787326
19571.5895946
19570.1354076
18501.3887763
18502.958202
19571.5082862
19570.3827791
18500.1326953
19572.8080953
19573.4140159
18505.6660124
18524.2973522
19572.6601355
19573.867877
18506.9066285
19571.4281822
19570.3089257
18510.5838371
18528.9796127
19570.1465397
19571.6663981
18510.6000067
19572.7447355
19574.2686799
18539.1100371
18539.3413773
19573.9768393
19573.1140415
18518.6035387
19570.8240942
19572.8616147
18376.8024925
18486.6311361
19570.4748156
19573.4542157
18394.6347757
19566.2911352
19560.9272361
18223.256459
18027.973903
19566.2149756
19560.7400746
18215.6541901
19571.2982857
19574.1645471
18507.842222
18443.967925
19573.7236397
19572.1515202
18424.8096993
19566.8649257
19562.6662243
18049.9347915
18292.6140034
19561.2425071
19568.0064242
18245.820397
19553.956772
19556.428981
17869.8374167
17939.1805416
19553.2513497
19556.2483676
17920.6145566
19552.1586616
19554.5591457
17877.1295275
17800.0287843
19551.3237744
17910.6207789
19554.6980893
19554.0316565
19557.822812
17947.3507036
17884.301204
19556.536812
19554.0924516
17919.5402432
19552.1855603
19554.8442292
17799.2377075
17882.3944692
19551.688909
17906.8877028
19554.7562251
19550.5845593
19554.5614049
18529.4754381
18577.4035537
19549.352847
18684.8163364
19551.4724901
19549.0272671
19546.0834528
18449.4139843
18458.4362767
19545.7711211
19546.3131201
18627.9888821
19551.0159106
19553.4661255
18586.7178095
18581.8634856
19550.8074611
18674.0170026
19551.3175682
19549.8901571
19548.6590356
18484.2202788
18510.7587117
19547.3001047
19548.6158763
18632.5022355
19544.693856
19545.2039795
18378.9882581
18417.6564299
19542.817457
19544.5776031
18487.648856
19544.4305163
19543.5161445
18377.5617685
18415.0325668
19542.2393212
19544.2022271
18455.5541293
19546.0316091
19548.090279
18446.3695164
18465.1370921
19546.0089941
19546.5400075
18507.9180728
19545.7075343
19546.7860218
18440.0670095
18458.9312401
19545.2459222
19546.1274432
18481.452765
19545.6342847
19544.2385216
18412.5176147
18441.3928088
19544.7127485
19544.6442904
18466.9824101
19546.5536998
19547.3952422
18440.9760601
18457.4152985
19545.8618255
19547.4265275
18457.9507909
19546.3644668
19547.1621525
18460.5863782
18465.4814487
19545.474134
19547.1321271
18489.6353557
19547.0784793
19548.9114227
18481.190226
18476.1565022
19547.7219701
19547.6504311
18483.194598
19549.6868545
19548.4317332
18460.3410331
18486.648959
19549.1333853
19548.5723427
18510.0143005
19550.7122326
19551.566032
18485.9924164