/*--------------------------------*- C++ -*----------------------------------*\
| =========                 |                                                 |
| \\      /  F ield         | OpenFOAM: The Open Source CFD Toolbox           |
|  \\    /   O peration     | Version:  v1906                                 |
|   \\  /    A nd           | Web:      www.OpenFOAM.com                      |
|    \\/     M anipulation  |                                                 |
\*---------------------------------------------------------------------------*/
FoamFile
{
    version     2.0;
    format      ascii;
    class       volScalarField;
    location    "6.4";
    object      p;
}
// * * * * * * * * * * * * * * * * * * * * * * * * * * * * * * * * * * * * * //

dimensions      [1 -1 -2 0 0 0 0];


internalField   nonuniform List<scalar> 
28582
(
17103.6437811
17100.9748123
12205.65106
12202.5424012
7307.24234706
7302.48181596
3636.42573849
3627.37716482
26.1336588751
33.2888199628
-27.6459976541
3631.53181976
632.0881547
631.081691667
3625.01807261
3624.22797658
630.087945141
1783.48046276
1782.55152861
17105.9694114
17099.5688905
17099.3011881
12208.3930106
12201.1727229
12201.2794797
7311.49706413
7301.01929071
3641.54423335
3624.83984374
33.8436562988
-27.3188820571
-27.1482287711
3639.07103227
3639.36993722
627.219432537
629.832864351
1805.70332599
3626.14583009
3624.01774784
3625.62610659
1784.27392778
634.09537388
1783.67083652
1786.66511641
29.5890058499
33.1627127546
-23.1117264526
-23.1206944985
32.0656016148
-23.1085997752
1802.6297089
1800.14280138
632.162586766
632.988882838
1803.49724648
632.9625153
1799.59420356
1796.20357748
1792.35797914
631.704611045
631.171260955
1792.11719349
632.225719037
1796.0348835
1785.38749628
1788.98561567
629.150655005
629.816395212
1788.42040118
628.66318019
1786.15235907
1784.10403873
628.326622978
627.886820392
1783.64761297
628.416348706
627.82136175
1784.43994059
1781.13128683
626.940871367
625.670760524
1782.44184176
625.284596652
1780.63974162
626.659561927
22.0467202308
-23.1556518917
18.6816974796
21.8256212153
-23.1741206696
-23.1501766625
34.1444827737
-23.0889684893
-23.0719415958
35.7190860897
-23.0919163015
34.8794271557
-23.0506500313
1806.27163965
1807.31261098
628.132672765
627.309387112
1806.38997614
1807.21335125
628.146782355
1804.96283215
1803.50019974
629.066333937
629.834294108
1805.09524972
1803.28774237
629.050851087
629.74442702
630.666118761
1804.16063255
1805.17995056
630.119479547
1803.52090549
629.26257402
1784.78551883
628.845741821
628.680547602
1785.85581849
630.193802037
1786.30742996
630.243262328
1787.65536252
1789.81354919
632.081500098
634.274523062
1788.02934214
1789.54376786
632.202833973
1784.63816373
1782.5602412
628.175872939
627.521842101
630.000899886
1785.45583901
630.185245002
632.585310827
635.087882729
1788.94909987
1787.37391714
634.674856173
1789.42030179
632.435649998
7302.35269209
3628.14127507
36.3624531556
-27.3230191936
3635.79014746
631.4158809
3627.97675617
3630.39322445
636.27495133
637.693412916
644.237455031
3631.87146727
3632.36187694
645.220192892
645.887169527
25.6701254697
37.4216798482
39.4786269409
-23.067068058
-23.0941772428
-23.1088372
39.9588548897
40.3606731467
1798.70729955
1802.06239776
630.796322242
631.550852763
1801.41118243
631.069140736
1799.14022426
1793.49647016
1791.63501991
638.475103059
636.565664186
1793.56406688
1791.47330967
638.857655977
1793.61490469
1791.25369757
637.067812326
640.208370349
1791.44847374
639.490538265
1793.74658559
1795.62601842
1797.46679068
643.512724882
642.803538871
1797.16862438
641.964736289
1795.90381258
1798.76608818
1798.42101948
644.608429827
645.876887846
1798.16168724
645.30786721
1798.95418054
1798.68269243
1798.1697541
645.390252305
646.161765813
1797.9407033
645.662100426
1798.89751604
3653.78919081
3648.11128772
3648.23099104
3645.75453221
13.9765910644
14.9272976142
14.8881587395
16.6195110246
15.5000145694
-27.0332966474
-27.2116376722
-27.078923138
-27.1579933566
-27.111402636
-27.1551370912
3656.03289769
3654.54599047
624.878170717
624.0433193
3657.04526703
625.342945648
3652.15547743
3649.63875561
624.105745167
623.608886572
3655.96479705
3650.46983183
3651.34469862
625.452348598
628.492580145
624.747592515
627.189911792
3651.64850437
3650.10842857
629.253248866
629.009786309
627.593298681
627.39480812
3648.38890782
3646.82850105
624.574290758
627.081942638
625.646376464
3647.44676459
3646.72227066
3646.34105409
627.562813811
627.273925371
626.174319616
626.306932992
625.447285873
625.733586049
11.3166510832
12.2327266724
13.5958125722
-23.2413557037
-23.2635028678
-23.2464050084
-23.2653747526
-23.2888183092
-23.2415371234
-23.2924216746
-23.2355195555
12.5306290634
12.9518582614
14.5235393587
14.5883940223
15.5989484217
-23.2451442371
-23.2616336636
-23.2265942644
-23.259693495
14.9281421343
15.7933960828
15.5293044969
-23.2933899657
-23.2506893756
-23.2932253098
-23.2478520055
16.2292062121
15.7445633762
-23.2162583123
-23.2565866674
-23.2549717303
16.3571837853
16.330942734
16.2509031604
-23.2841767396
-23.2506374937
-23.2845932791
-23.2579245178
1815.86470704
1817.99754107
623.890495041
624.563775518
1816.72261936
623.957526536
1816.83667592
1814.80890878
1814.7056719
624.233892787
623.097654594
1815.54674393
1813.81880788
623.672292836
1818.8911004
1816.13520455
625.109868856
626.655078466
1816.84540765
1817.86704916
626.581806705
1812.59314859
1814.21444385
622.700794497
623.929007894
1813.10836098
1813.53172883
622.60256085
1811.99284176
1811.74101046
623.914715199
622.288759672
1812.69328355
1811.12409334
622.613340045
1815.45498021
1815.45894637
626.556482773
625.168055845
1816.78730707
1814.50514718
626.212790714
1816.35436201
1819.37049517
627.524641606
627.794606747
1818.07629167
1817.28545823
627.073003321
1813.99878462
1812.20610682
625.020283117
625.555547787
1813.37671507
1812.59042465
625.875931609
1814.68819008
1813.71767659
627.512254241
626.444449542
1815.34983915
1813.16263562
626.848532944
1818.23878821
1820.34484034
629.633495052
628.398817712
1820.6285367
1818.05156236
628.841758655
1817.73434787
1818.03803456
629.356251181
628.37319395
1819.98093176
628.740066541
1816.20368949
1815.93812352
1814.10681316
627.860525608
627.825509656
1815.83983031
1814.20839038
628.155655073
1815.52239409
1813.10169453
627.710116275
627.739398902
1813.90195187
628.088495327
1814.3617552
1810.81820111
1811.26525457
625.343106854
624.195875475
1811.5578058
1810.48876633
624.944628874
1811.2493026
1812.50906064
626.280248983
626.795403704
1812.03118102
1811.61858576
625.964795556
1810.5668128
1810.23328789
626.259541264
624.959812159
1810.85870716
1809.97833238
625.489639795
1811.95865269
1812.81647592
627.736880305
627.24288368
1812.88307252
1811.86725293
627.467800649
1811.81332516
1812.11552886
627.601828045
627.179044536
1812.65937017
627.41307672
1811.42713957
1811.22589957
1810.47057351
626.767443995
626.417597119
1811.10687786
1810.59228978
627.014972243
1811.13246723
1810.32880752
626.804874711
626.415931362
1810.52958228
627.011267741
1810.84909158
1809.46448926
1809.88904643
625.709694348
624.664549801
1810.00830228
1809.34923648
624.921132243
1809.87424667
625.758659938
1809.99078471
17102.7019624
17100.193503
17099.1740294
17099.2750041
17099.2345693
17102.3156338
12204.6941077
12201.8272252
12200.8655961
12201.6243414
12201.5555557
12204.2575852
18320.7255883
18322.9229658
17092.2964527
17095.2622379
17097.5794482
17099.7790937
17103.6483615
17097.2938079
18322.3338231
18323.8434823
17097.899697
17097.4734762
17098.123196
17098.4886926
17098.5621408
17099.6800645
17102.3178664
17099.7002354
17098.4551577
17098.0153296
17097.9230576
17097.6371496
17097.532804
17099.9244148
17104.7162488
17101.4328573
17099.4640777
17098.9530049
17098.9019335
17098.5335224
17098.2526029
17100.9627845
17099.0161886
17098.7116217
17098.3599204
17101.3757078
13421.275813
13423.0611636
12197.4883371
12196.5593635
12197.0516058
12201.3738318
12208.6146948
12180.2339955
13425.0184571
13425.5713877
12201.8825199
12200.519789
12199.0897521
12199.2702848
12199.0040037
12192.8010984
12204.3815989
12202.5192433
12200.8422674
12199.4797055
12199.0807996
12198.7135915
12197.9808635
12198.2478385
12207.1157089
12203.8422304
12201.502569
12200.7348416
12200.7251955
12200.3463254
12199.6995632
12201.6423789
12200.9496737
12200.8863819
12200.4149893
12202.948459
8522.60232834
8524.824796
7300.21858534
7295.69536042
7296.95133789
7302.2812012
7309.25302889
7275.45136224
8526.90857961
8528.943115
7299.34739506
7296.50444681
7298.23289485
7300.42705664
7298.88204167
7288.61781224
7308.08065134
7305.68507896
7301.6759523
7298.77520717
7299.87432275
7300.27018837
7298.17034412
7296.96163825
7314.39945492
7310.6050571
7306.13389651
7301.70979405
7299.92173324
7301.2411205
7301.36291092
7300.06536337
7300.88602584
7306.4561083
7302.0309739
7300.82571024
7302.05969876
7302.28379685
7301.19369835
7303.14301425
7303.15599402
7302.50187877
7304.97094139
3629.09366559
3632.41170674
3629.0487343
3619.39995795
3620.47575162
3628.62992909
3633.48723321
3637.3075386
3631.87070048
3631.99053575
3634.49783349
3629.06418393
3620.32899677
3621.21036947
3627.53966283
3629.34489882
3624.10807536
3645.64985546
3640.0770009
3637.28857621
3637.14463406
3630.69023041
3621.78050645
3623.31492251
3628.08242096
3628.34026376
3625.37849711
3643.05006087
3640.89191762
3636.93953118
3628.49800823
3623.06883625
3625.79008434
3629.85131618
3629.77558662
3626.8276887
3635.61204866
3627.43241927
3624.47883076
3627.6321083
3630.90249846
3630.47090462
3627.81734316
3631.54278428
3631.33659652
3629.41921265
18.2820621699
24.0971990301
36.2392703158
42.6364803197
42.5082625187
42.0561128742
41.8752163128
43.9833595669
15.1161724622
15.4629000486
17.2439690371
23.148721578
33.6441350229
39.1601544454
43.4839463197
44.3490896981
43.0358962288
44.3697065487
15.8400848952
15.5435349737
16.9543689821
20.702426716
30.950079711
36.5581806177
40.1584944455
42.5072276661
42.0055565113
42.8890525851
15.5665231352
16.9584939652
23.4119814518
31.4487392721
35.3851512836
37.2287512917
38.8259062803
39.3202102178
40.8809002676
25.4142059696
32.0249291883
34.6621327485
36.2406031391
37.8976202468
38.7404155165
39.296128607
39.1426956471
39.4650205619
39.225903726
-27.12705706
-27.0801866003
-27.2348682285
-27.3410101193
-27.7355070802
-27.670916358
-27.2778858903
-27.1526231584
-27.2969534653
-27.7303144781
-27.1488576198
-27.0774268028
-27.1753652718
-27.1372232038
-27.5087661465
-27.6544668558
-27.6143689573
-27.1781685346
-27.3559065322
-27.7951577064
-27.2097521551
-27.0457957206
-27.1048931004
-27.094499937
-27.2145125916
-27.2789026931
-27.563089829
-27.110039877
-27.3325907864
-27.6289855511
-27.0381279679
-27.1123307698
-27.0936484457
-27.2222361776
-27.2112521983
-27.5426560554
-27.0808161208
-27.3053261307
-27.5551787214
-27.4197047516
-27.5816156054
-27.5996859845
-27.5338377265
-27.1271173741
-27.2802877834
-27.6012349308
-27.0696996384
-27.2275589857
-27.6168420551
18322.1747275
18320.7965739
18322.3349551
15871.2714001
15873.0251575
15871.8691102
15873.2040777
18322.8428595
18323.4292536
18323.4972833
15873.9906611
15869.2749642
15873.7673487
15871.5915976
18322.9342764
18324.6402892
18323.9432978
15873.4676936
15874.3462523
15875.4855287
15875.2757132
18323.6870903
18324.1143614
18324.13876
15874.8264737
15873.7494762
15875.496296
15875.6040863
13422.5090107
13422.6560925
13423.4572012
10971.3898158
10972.8942868
10972.9969592
10974.1961904
13422.5442273
13423.437615
13423.642358
10973.4302064
10972.7740114
10974.4749275
10973.4811808
13425.5864948
13426.6140164
13426.5894177
10975.7707411
10976.7327734
10977.776565
10977.4918786
13424.5783765
13426.5486684
13428.9706629
10977.0904391
10972.3721427
10977.1546594
10978.9012928
8524.2678863
8524.35394986
8525.73052591
6075.18417524
6077.0453202
6076.80647868
6078.10694965
8524.40595692
8526.31625935
8525.87985829
6077.81567525
6077.64853441
6078.70419191
6079.78022594
8528.17660929
8529.12599282
8529.08639287
6078.88160059
6080.25405093
6081.00758215
6081.50174962
8524.42539629
8528.90317897
8529.42331706
6080.94005437
6079.28936229
6081.702554
6082.04604563
3627.38473098
3628.98421407
616.796553844
617.337226988
3631.07370904
3630.60658588
3632.16428574
618.784108367
626.147832587
619.498707138
626.921334933
3631.88271634
3633.07376574
3631.92709161
628.942712455
639.047216322
629.734826243
637.065250892
3623.78742797
3628.14992844
3623.17664009
641.21401707
634.049292941
637.618123268
632.580661517
3618.23335752
3619.3363052
3618.13820975
628.916591218
628.792694557
629.519472057
631.868792428
3624.55944884
3620.55052047
3624.25590431
633.521094015
644.302111432
635.966069353
646.508502293
3631.21221131
3627.75171949
3630.01145941
645.431713852
647.37342722
647.323744316
648.226450659
3635.44116571
3631.44361068
3630.55198782
647.985296254
646.836368563
647.727535348
644.511593773
3615.39740431
3626.78430365
3618.23420491
646.895169992
609.598073787
643.956005748
614.609982547
3645.82100248
3640.7257948
628.011895103
621.494914859
626.745743784
623.825633607
3630.96806843
3636.77596075
3634.69955694
619.524982299
618.106766383
622.586095877
621.372839977
3633.43434278
3634.41093322
3635.35778268
620.013161513
626.72433876
621.885908543
626.180770954
3633.08784127
3636.03335445
3634.76345459
629.674282647
636.88011114
628.643579194
637.081850641
3623.89025017
3631.28082173
3626.06164818
637.212704254
631.933519842
636.959415616
629.762982298
3619.07505795
3622.02838489
3620.76934492
628.890423385
632.235521815
627.260846788
632.212842749
3624.63319378
3622.58113646
3625.68186198
636.40276116
646.738916592
636.12626026
646.115741639
3629.33643629
3627.84821134
3628.96430791
647.570020894
648.162142186
646.931084287
647.480538967
3627.48256168
3628.37664375
3626.75149568
647.492151952
643.803209136
646.667403769
642.451023475
3622.30685174
3624.18094011
3625.665763
643.151699005
615.374956418
641.682519703
616.475563489
3642.90497603
3645.41511744
3643.86741849
626.680793564
624.406591656
626.026059235
624.988160897
3638.19738422
3642.02761767
3640.50151803
623.46600699
622.26004062
624.696940587
624.385838412
3637.42980054
3639.49536181
3638.85411606
622.717320733
626.322100768
624.813730285
629.038200954
3634.92789093
3637.41771078
3634.09752827
628.915205673
636.810511045
631.264475104
633.602039296
3625.28982551
3629.49732779
3624.90474075
636.409863817
628.996884636
632.435947974
627.621205542
3620.82247852
3622.25860409
3622.26357415
626.70044059
631.920767496
626.238546999
632.116525347
3626.21804583
3624.68146533
3627.30942145
635.709181904
645.664072974
635.270821389
643.476810989
3629.0460143
3629.02539917
3629.92797762
646.434231216
647.167729788
644.183186237
645.116450324
3627.05940781
3629.13146457
3627.89387722
646.484728144
642.228637308
645.028680544
641.416706422
3627.46991455
3626.15842275
3628.56494097
641.425038472
616.541860923
640.453706018
616.070287685
625.583488168
624.932415612
3641.90647687
3642.73152079
624.711174168
624.860947503
626.322183603
3639.48988516
3641.4376643
3639.29030112
625.564313361
629.845184013
627.2714308
629.893951298
3632.96526416
3636.09469296
3631.81167107
631.418518714
632.604283906
630.740250778
631.257365852
3624.79069265
3627.73393996
3624.89892117
631.673894025
627.739285982
630.650000966
628.296983768
3623.39405161
3623.89654861
3624.59876101
626.915597625
632.371120045
628.447212145
633.212506408
3628.17917709
3626.933847
3629.0732194
635.172752063
642.661415194
635.38668688
641.543756792
3630.58833636
3630.52137853
3631.04425711
643.47518316
644.404571909
642.331984313
643.269597402
3628.47137298
3630.23568735
3628.84030121
644.536364195
641.1904929
643.129840194
640.237644557
3629.39481664
3627.1880843
3630.16476519
640.252060407
616.047360025
639.555902345
616.838803254
3631.24666377
3631.2636047
630.613846175
630.979429655
630.874124867
3625.13167061
3627.42559123
3625.27723488
630.435424064
628.402213239
630.180900894
628.421265468
3625.53257576
3624.85312461
3626.17385335
628.787239064
633.496538985
628.756970514
633.950587864
3629.61062528
3628.14874636
3630.05465511
635.645627758
641.591703007
636.092155953
642.024464595
3631.24921516
3631.25743632
3631.54011868
642.339833474
643.113000085
643.029577859
643.649033255
3629.09889451
3630.89270295
3629.66684473
642.838592662
640.115928772
642.84024072
640.410725755
3631.15236868
3628.60644499
3632.14991794
639.604376891
616.571853213
640.13977534
618.000458101
3630.18982576
642.322872829
3631.92240243
643.390109477
644.322202368
3630.17891297
643.304127735
640.62187128
3632.91110364
640.415520385
617.54944462
-23.1996842193
-23.1944414998
-23.1981385225
-23.1929199742
15.9072301711
15.5711094957
-23.1781764682
-23.159973867
-23.1714480674
-23.1534548137
20.9062104211
17.8381627044
20.7455342882
-23.1748367116
-23.1838618464
-23.1631637145
-23.1755891265
29.6180349732
24.0022250597
29.4603180015
-23.181834067
-23.1656572804
-23.1660628442
-23.1445570912
41.0852931517
35.3121937053
39.4300299442
-23.1542991037
-23.1211678824
-23.1284421024
-23.0919981707
41.6525397346
41.2621837995
41.8415750763
-23.0890014886
-23.1184752689
-23.0603393349
-23.0545134024
43.5504078241
43.584273115
45.0149885327
-23.0749486029
-23.0948512746
-23.004978766
-23.0671659143
42.0247663061
43.5788861958
43.183255007
-23.0921638114
-23.1690224753
-23.0838039794
-23.1818485553
42.7679955123
42.6682472556
43.2712553258
-23.203237658
-23.1963035603
-23.213626222
-23.1950607176
46.0631317127
44.3112772864
47.1098549893
-23.2307004943
-23.1490719515
-23.2359926986
-23.1445456828
15.0592404556
15.2198320441
15.2334737106
-23.2274648764
-23.2116070068
-23.2246319396
-23.2118567382
15.61436332
15.6067955546
16.0916363881
-23.1862314862
-23.1668310319
-23.1739608419
-23.1834955083
19.9677564242
17.0248028938
18.7810004091
-23.1666013874
-23.170020536
-23.1888521604
-23.176310021
28.1449025986
21.5492098696
26.530591477
-23.1518065735
-23.1168040165
-23.1462745538
-23.1009190431
37.5036323763
31.8962755844
36.0242539583
-23.0717196897
-23.0385762
-23.0487351145
-23.0259140819
40.6069077282
37.6002629966
38.9832569381
-23.0665925092
-23.0186118857
-23.1106889935
-23.0262726796
45.4241700208
41.8842907083
44.3063870769
-23.0339751554
-23.1224547003
-23.0088030845
-23.1342363061
43.7571988604
43.8383740825
43.4620177265
-23.0874169378
-23.2092320433
-23.1065445773
-23.2337015319
43.5872367295
42.8672880028
43.3971882897
-23.2294322747
-23.1918322177
-23.2443773408
-23.1967832425
47.4694253671
43.8563610206
47.2139828986
-23.2453181192
-23.1462397186
-23.2487446626
-23.1548075143
15.5589595898
15.8559233899
15.6259301721
-23.2317894897
-23.1974197098
-23.2399314733
-23.1877479482
16.089169815
15.5820447074
15.864673794
-23.148743461
-23.1772750928
-23.1367084842
-23.1756780163
17.9765147237
16.5780020196
18.0559408813
-23.1893154139
-23.1660510659
-23.1864422856
-23.1565402946
25.7795381558
21.4568647279
26.3333548708
-23.1227311261
-23.0768510211
-23.1082930879
-23.0440411204
35.2556768104
31.0871119957
35.0514517842
-22.9728250865
-22.9561837456
-22.9510080125
-22.9626212683
37.7141577305
35.8012197358
36.9514270241
-23.0398210785
-23.0019924043
-23.0593216227
-23.0617994094
42.7751043453
38.5938845193
40.7443474682
-23.0316655954
-23.1465639718
-23.0786509787
-23.1681716356
42.3112778167
40.5247428997
40.4301961374
-23.1137421668
-23.2460468301
-23.1398964062
-23.2594950967
42.472358907
40.5991025204
41.207576678
-23.2541633787
-23.1986299244
-23.2647289356
-23.2034451952
46.7199376875
41.8358434334
45.8454959844
-23.2381645784
-23.1685294512
-23.2411383025
-23.1743671171
15.9108777569
16.1086696517
-23.1251046835
-23.172771545
-23.1780690348
19.4890967279
18.0165874559
21.1389015285
-23.1660465999
-23.139042702
-23.1640821125
-23.1297432014
27.4538981808
24.7573002402
28.2559074038
-23.0696888813
-23.0116365493
-23.0685814323
-23.0226503268
34.7305446709
31.8227968297
34.5169010616
-22.9543511443
-22.9710380441
-22.9831359863
-23.0021333984
35.9996917361
35.0213523167
35.3277637895
-23.0643211986
-23.075968417
-23.0738685593
-23.0666530385
38.8637374469
36.3363743534
37.7972244169
-23.0828023413
-23.1603548949
-23.0790636893
-23.1581358394
38.783286471
37.8800862246
38.0362910236
-23.1440976926
-23.2502279006
-23.1397896104
-23.2372972122
40.1261029254
38.8388729085
39.6714082918
-23.261416704
-23.2044191433
-23.2419281988
-23.1990369256
45.0137759993
40.0199356462
43.712290599
-23.2370339473
-23.1749611307
-23.2366838131
-23.1738574578
28.8086279606
29.2051826075
-23.1260978304
-23.0971611547
-23.1430646892
-23.1255756427
34.2121575752
32.0899479933
33.751655063
-23.078417983
-23.0959101152
-23.0974094572
-23.1067464643
35.0627990886
34.1790548328
34.8721512772
-23.1479016606
-23.117828881
-23.1287292251
-23.1133136488
37.6959260522
36.1747686613
37.9562532316
-23.0623035432
-23.1627438155
-23.1086792472
-23.1667440958
38.3552220022
38.5252450732
38.9706498552
-23.1327224898
-23.2053860418
-23.1227163172
-23.1805367388
39.3101646831
38.8072660946
39.1927708277
-23.21380004
-23.1870423203
-23.1912425509
-23.174818466
42.1903658685
38.8943077575
40.895355931
-23.2399098432
-23.1677241638
-23.2367643218
-23.1794476872
38.4666406346
-23.1046110335
39.7362688563
-23.1139093399
-23.1547868262
-23.11569405
-23.148031406
39.6337167515
-23.1689835467
-23.1594081183
-23.1504237747
-23.1369615376
40.6646589709
-23.2241537323
-23.1798437074
-23.2066881497
-23.166534343
1791.20303324
1791.52876237
615.320810314
616.684100229
1791.75738728
615.23222261
1790.86529482
1791.7379845
1793.60914296
616.745051123
616.180156728
1792.45565169
1792.86878538
615.263140633
1794.69488964
1792.79100782
621.190149453
618.854413592
1793.02786391
621.39683749
1794.43276377
1796.53029443
1798.08899911
623.64314402
626.39279018
1798.30316194
623.885242532
1796.24397586
1795.48232593
1795.01269784
619.106599653
621.73928724
1793.85980047
1796.54708843
621.625456289
1797.288816
1799.7945897
626.701282512
624.284692061
1798.94847705
1798.20397944
624.160842378
1800.85075201
1799.73425449
632.115935583
629.213349127
1799.75282228
632.277500637
1801.0919174
1801.03563058
1800.81464479
635.834408493
638.344702715
1799.66200905
635.819985641
1801.65150168
1801.05304963
1800.96136432
629.519344968
632.641475485
1800.19554036
1801.61279617
632.470569155
1800.86705722
1799.02982688
637.577758092
635.52240862
1799.12259633
1801.09172065
635.670263798
1790.66185392
1797.68585383
640.503909404
639.792165627
1796.19399437
639.12136924
1792.08045627
1783.99530334
1777.24376119
637.730850872
633.345892283
1776.99127352
636.576522848
1785.07535403
1790.36836091
1795.32283901
638.58101049
636.842209067
1795.63513617
1790.33235081
637.979904549
1784.30749602
1779.01376559
633.002473095
634.973185201
1778.01455944
1784.83635914
635.716746801
1770.96221189
1771.63732377
625.963607928
629.051046706
1772.11727848
626.567693421
1770.11267752
1772.61801511
1774.90462135
625.517616419
629.575208478
1775.12930758
626.426227179
1771.92070549
1772.61197292
1775.0421913
629.372965125
627.793741229
1773.70037538
1774.02128348
627.356454168
1774.01174705
1777.28369169
631.048325708
628.780971851
1776.18976528
1775.30387866
628.004513805
1783.49104997
1778.94487865
637.535410677
634.25175257
1779.00036818
638.355541644
1783.46267486
1788.02380955
1792.05182303
641.631274137
645.258522263
1791.97309611
642.547927402
1787.99933076
1783.78911725
1780.37178901
635.354242963
639.927837773
1779.60608086
1784.20043244
639.286937421
1788.12319832
1791.88271093
646.021691647
643.991263197
1791.89093534
1788.27405991
643.400402315
1796.13815264
1794.82448839
646.013484102
646.240418789
1794.64114561
646.679012175
1796.45143452
1797.18337003
1798.23016724
646.695540039
647.785407076
1797.75430857
647.245962109
1797.58617667
1795.78870035
1794.20217506
646.9238447
647.638011315
1794.40963093
1795.42313503
647.234547273
1796.68976988
1796.65220939
648.169384085
648.010008792
1797.17172466
1796.20454972
647.686556467
1797.25875767
1798.4393286
647.940197973
648.170897584
1797.85682854
647.782392858
1797.99965446
1795.68558018
1794.22987341
647.426187266
646.387545521
1792.85959692
647.097608948
1796.91645204
1796.34307881
1796.47020035
648.081639013
646.974739377
1797.21007596
1795.23136969
647.430211903
1794.32172998
1789.15595487
645.347228464
645.649792812
1791.01913749
1792.8488556
646.35329817
1783.01500902
1790.25205032
648.998264459
646.323605904
1788.67568433
648.230029097
1785.09376866
1775.36569534
1776.64782181
653.277927176
611.062102549
652.1682084
1777.17973688
1777.85568539
1780.44943533
1784.36503819
644.84429627
645.154132967
1786.31945003
1778.33832807
646.227582882
1771.26268064
1779.59947931
612.90602105
647.881263078
1768.163325
649.196593503
1778.33699108
1810.04141948
1814.40532003
625.916627068
627.511578046
1810.09639334
625.917343825
1813.29182599
1806.19654507
1801.00329753
623.713764117
622.066859426
1805.29362042
1802.56431895
624.12215293
1809.95787572
1811.72860252
627.051253557
625.942163339
1810.03115768
625.980747413
1812.33247161
1807.17964181
1805.56341796
622.833700314
625.093532346
1804.14501287
1807.92178862
624.647164939
1797.30479321
1797.63730794
617.882670629
620.310995181
1795.21082965
1799.54744983
619.231776097
1796.35514057
1794.90515131
617.116223887
619.087241447
1794.2999749
1796.6231456
618.580390801
1799.43164043
1803.2971759
621.134071146
621.514795285
1801.39106503
1801.51782617
620.378816873
1798.42638205
1799.95348649
620.294681973
621.097321996
1798.26657487
1800.39659103
620.065534377
1798.51840673
1796.17343327
621.891810582
620.4872892
1797.4241562
1797.52444972
622.165097827
1799.7370929
1800.41341791
624.105649255
626.467868757
1798.86245649
1801.17480046
624.008995435
1799.50960811
1800.01840227
621.214223275
622.914226335
1798.66010069
1800.57502131
622.552435084
1800.547879
1802.83642658
626.221511572
624.373214183
1801.88786788
1801.57119037
624.087546983
1803.3147666
1801.67495152
632.602226079
629.408624258
1802.37438264
1802.49224147
632.397533861
1802.82879162
1799.51287781
635.543032079
636.984718457
1801.79922319
1800.4588931
635.522996302
1804.17750903
1804.04673859
628.839143374
631.833301126
1803.19146851
1804.94951161
632.04798589
1803.84532952
1802.10103717
637.163486313
635.371914389
1801.51872927
1804.52622313
635.492714381
1791.42319402
1795.69211018
636.373262361
637.164341005
1790.70925508
1796.49205173
636.141840321
1785.89031606
1779.7183436
634.351097895
631.262546822
1785.31264287
1780.32962699
633.829921484
1792.12084084
1797.74890531
637.151890277
635.523036674
1797.4088234
1792.11502106
635.911558356
1786.33506319
1780.85217853
630.508648135
632.590578905
1780.78179965
1786.23869436
633.285510442
1776.15629998
1775.9523515
627.684893969
628.240301941
1775.07598278
1776.74705645
627.442599678
1777.43677116
1778.5092124
629.070515813
632.428334631
1776.29390896
1779.75625327
629.088452062
1777.1681844
1777.99232657
627.87164033
626.810755056
1777.47923617
1777.93715945
627.251171325
1778.46063472
1781.28944259
632.400065638
628.726766476
1780.53698295
1779.21139798
628.978902966
1785.46024909
1781.23693495
640.180479535
636.489272685
1784.66094621
1782.28924931
640.300432756
1788.93765192
1791.83170779
644.191065008
646.761230425
1788.44915401
1792.00560582
644.191443042
1786.31394647
1784.11316503
636.326403697
639.851054621
1783.21561229
1787.20203744
640.092611826
1789.55443985
1792.94246622
646.47186589
643.778330608
1792.40239229
1790.29846779
643.981899254
1794.91054169
1793.90462285
647.832774836
647.58347443
1795.01856277
1793.89708965
647.868171736
1795.55618599
1796.19593022
648.078369276
648.015745887
1795.80044774
1795.7431917
648.103952
1795.01935807
1794.5008187
647.34371074
647.349003427
1794.15787622
1795.25564119
647.657122685
1795.49881044
1795.54594168
647.877671387
647.596089657
1795.52995226
1795.62793677
647.967831237
1793.25485151
1795.6204597
646.560058454
647.196318768
1794.13859598
1794.91450476
646.076869077
1790.6804666
1787.84268159
645.118281732
643.247261209
1791.62829596
1786.86676516
644.528103924
1792.83574621
1794.53672266
646.958483775
645.459788857
1794.56362326
1792.7718751
645.697682385
1790.18930902
1786.28334212
642.789639689
643.850451114
1786.37538797
1790.12604561
644.120477543
1776.59946216
1783.33681125
644.382726463
642.568193178
1777.46387272
1782.39300152
643.705769012
1767.03114955
1780.408613
647.318149068
615.903837473
1767.66626998
646.442982597
1781.1098069
1776.46658046
1781.94631223
642.08350679
642.802530656
1782.05241298
1776.38461974
643.31136674
1767.34469464
1782.1404849
616.219856112
645.494762498
1767.47529728
646.400249353
1781.87998871
1809.93132067
1811.2002719
625.999713871
626.617708468
1810.04803497
626.031401009
1810.77833184
1808.8929797
1806.85191183
625.316716735
624.776890351
1808.58956447
1807.66817748
625.488863819
1809.80720545
1810.01173984
626.385455841
625.700169121
1809.57925321
625.942373069
1810.40482219
1809.05994065
1808.39070579
624.973503903
625.357664019
1808.18391082
1809.01838837
625.496204905
1805.05007165
1805.00314153
622.614353469
624.130681364
1803.40003194
1806.32369093
623.5565847
1803.99240522
1801.62459313
622.203843784
623.046968381
1802.24675541
1803.28903048
623.123029844
1806.20520354
1807.67390024
624.491562711
624.378724327
1807.17543482
1806.98912248
624.037332206
1805.37966422
1805.92565818
623.782954945
624.292066931
1804.75899603
1806.39823441
623.773704615
1803.26325231
1801.53541723
623.517985558
623.451785871
1801.87774598
1803.06435976
624.125326137
1803.87708655
1803.86267444
624.543949816
626.887601222
1802.6736599
1804.91526739
625.042822783
1804.6070853
1805.65477969
624.203966044
625.862641631
1804.4655679
1805.65246423
624.925481003
1805.06258693
1806.40110296
627.871047057
627.134854837
1805.80762286
1806.08194324
625.965761896
1805.88717613
1804.93749035
631.937828909
629.500751189
1805.54944012
1805.74955916
632.333273082
1804.43583582
1801.99351963
635.261275807
636.184239809
1804.71927523
1801.22252503
635.126154908
1805.57922876
1806.08720576