/*--------------------------------*- C++ -*----------------------------------*\
| =========                 |                                                 |
| \\      /  F ield         | OpenFOAM: The Open Source CFD Toolbox           |
|  \\    /   O peration     | Version:  v1906                                 |
|   \\  /    A nd           | Web:      www.OpenFOAM.com                      |
|    \\/     M anipulation  |                                                 |
\*---------------------------------------------------------------------------*/
FoamFile
{
    version     2.0;
    format      ascii;
    class       volVectorField;
    location    "5.65";
    object      force.turbine;
}
// * * * * * * * * * * * * * * * * * * * * * * * * * * * * * * * * * * * * * //

dimensions      [1 -2 -2 0 0 0 0];


internalField   nonuniform List<vector> 
28582
(
(0 0 0)
(0 0 0)
(0 0 0)
(0 0 0)
(0 0 0)
(0 0 0)
(0 0 0)
(0 0 0)
(0 0 0)
(0 0 0)
(0 0 0)
(0 0 0)
(0 0 0)
(0 0 0)
(0 0 0)
(0 0 0)
(0 0 0)
(0 0 0)
(0 0 0)
(0 0 0)
(0 0 0)
(0 0 0)
(0 0 0)
(0 0 0)
(0 0 0)
(0 0 0)
(0 0 0)
(0 0 0)
(0 0 0)
(0 0 0)
(0 0 0)
(0 0 0)
(0 0 0)
(0 0 0)
(0 0 0)
(0 0 0)
(0 0 0)
(0 0 0)
(0 0 0)
(0 0 0)
(0 0 0)
(0 0 0)
(0 0 0)
(0 0 0)
(0 0 0)
(0 0 0)
(0 0 0)
(0 0 0)
(0 0 0)
(0 0 0)
(0 0 0)
(0 0 0)
(0 0 0)
(0 0 0)
(0 0 0)
(0 0 0)
(0 0 0)
(0 0 0)
(0 0 0)
(0 0 0)
(0 0 0)
(0 0 0)
(0 0 0)
(0 0 0)
(0 0 0)
(0 0 0)
(0 0 0)
(0 0 0)
(0 0 0)
(0 0 0)
(0 0 0)
(0 0 0)
(0 0 0)
(0 0 0)
(0 0 0)
(0 0 0)
(0 0 0)
(0 0 0)
(0 0 0)
(0 0 0)
(0 0 0)
(0 0 0)
(0 0 0)
(0 0 0)
(0 0 0)
(0 0 0)
(0 0 0)
(0 0 0)
(0 0 0)
(0 0 0)
(0 0 0)
(0 0 0)
(0 0 0)
(0 0 0)
(0 0 0)
(0 0 0)
(0 0 0)
(0 0 0)
(0 0 0)
(0 0 0)
(0 0 0)
(0 0 0)
(0 0 0)
(0 0 0)
(0 0 0)
(0 0 0)
(0 0 0)
(0 0 0)
(0 0 0)
(0 0 0)
(0 0 0)
(0 0 0)
(0 0 0)
(0 0 0)
(0 0 0)
(0 0 0)
(0 0 0)
(0 0 0)
(0 0 0)
(0 0 0)
(0 0 0)
(0 0 0)
(0 0 0)
(0 0 0)
(0 0 0)
(0 0 0)
(0 0 0)
(0 0 0)
(0 0 0)
(0 0 0)
(0 0 0)
(0 0 0)
(0 0 0)
(0 0 0)
(0 0 0)
(0 0 0)
(0 0 0)
(0 0 0)
(0 0 0)
(0 0 0)
(0 0 0)
(0 0 0)
(0 0 0)
(0 0 0)
(0 0 0)
(0 0 0)
(0 0 0)
(0 0 0)
(0 0 0)
(0 0 0)
(0 0 0)
(0 0 0)
(0 0 0)
(0 0 0)
(0 0 0)
(0 0 0)
(0 0 0)
(0 0 0)
(0 0 0)
(0 0 0)
(0 0 0)
(0 0 0)
(0 0 0)
(0 0 0)
(0 0 0)
(0 0 0)
(0 0 0)
(0 0 0)
(0 0 0)
(0 0 0)
(0 0 0)
(0 0 0)
(0 0 0)
(0 0 0)
(0 0 0)
(0 0 0)
(0 0 0)
(0 0 0)
(0 0 0)
(0 0 0)
(0 0 0)
(0 0 0)
(0 0 0)
(0 0 0)
(0 0 0)
(0 0 0)
(0 0 0)
(0 0 0)
(0 0 0)
(0 0 0)
(0 0 0)
(0 0 0)
(0 0 0)
(0 0 0)
(0 0 0)
(0 0 0)
(0 0 0)
(0 0 0)
(0 0 0)
(0 0 0)
(0 0 0)
(0 0 0)
(0 0 0)
(0 0 0)
(0 0 0)
(0 0 0)
(0 0 0)
(0 0 0)
(0 0 0)
(0 0 0)
(0 0 0)
(0 0 0)
(0 0 0)
(0 0 0)
(0 0 0)
(0 0 0)
(0 0 0)
(-0.00190615706866 2.90033773612e-05 0)
(0 0 0)
(0 0 0)
(0 0 0)
(0 0 0)
(-2.66319679064e-05 1.87778853064e-07 0)
(0 0 0)
(-2.71753679262e-06 1.61388277469e-08 0)
(0 0 0)
(0 0 0)
(0 0 0)
(0 0 0)
(0 0 0)
(0 0 0)
(0 0 0)
(0 0 0)
(0 0 0)
(0 0 0)
(0 0 0)
(0 0 0)
(-0.0162883254006 0.00043841099927 0)
(0 0 0)
(0 0 0)
(0 0 0)
(-0.030286643203 0.000571561129285 0)
(0 0 0)
(0 0 0)
(-0.214865052218 -0.0172349377624 0.0368187500459)
(-1.74687214184 -0.15853351447 0.331332020838)
(-0.0822878474878 0.00155291343189 0)
(-0.829617090819 0.0109174912629 0.00805203400325)
(-0.00612451307051 5.00850253652e-05 0)
(-0.0812585707943 0.00153348920764 0)
(0 0 0)
(0 0 0)
(0 0 0)
(0 0 0)
(0 0 0)
(-0.01628831997 0.000438410853102 0)
(0 0 0)
(0 0 0)
(0 0 0)
(-0.0298429214879 0.000563187336163 0)
(0 0 0)
(0 0 0)
(0 0 0)
(0 0 0)
(0 0 0)
(0 0 0)
(0 0 0)
(0 0 0)
(-1.54473472944e-05 1.1625741907e-07 0)
(0 0 0)
(-9.57399145005e-06 7.20542831703e-08 0)
(-0.000141494156543 1.65982887515e-06 0)
(-0.00078430340177 9.20044661169e-06 0)
(-9.00445578129e-05 1.05628784085e-06 0)
(-0.000478103565475 5.60850089274e-06 0)
(0 0 0)
(0 0 0)
(-0.000197054184112 1.55483893467e-06 0)
(0 0 0)
(0 0 0)
(0 0 0)
(0 0 0)
(0 0 0)
(0 0 0)
(-0.00860088128367 0.000130867812317 0)
(-0.000428902657449 5.34449402705e-06 0)
(-0.00201704498872 3.06906067313e-05 0)
(-3.24492613956e-05 3.37880539117e-07 0)
(-0.000165438545332 1.94071388751e-06 0)
(-4.28738217694e-06 2.54617794419e-08 0)
(-3.51514902115e-05 3.66017713582e-07 0)
(0 0 0)
(0 0 0)
(0 0 0)
(0 0 0)
(0 0 0)
(-0.000226146555521 1.78438976593e-06 0)
(0 0 0)
(0 0 0)
(0 0 0)
(0 0 0)
(0 0 0)
(0 0 0)
(0 0 0)
(0 0 0)
(0 0 0)
(0 0 0)
(0 0 0)
(0 0 0)
(0 0 0)
(0 0 0)
(0 0 0)
(0 0 0)
(0 0 0)
(0 0 0)
(0 0 0)
(0 0 0)
(-0.005329545179 4.46158299083e-05 0)
(0 0 0)
(0 0 0)
(0 0 0)
(0 0 0)
(0 0 0)
(-0.0048963655087 4.00414837681e-05 0)
(0 0 0)
(0 0 0)
(0 0 0)
(0 0 0)
(0 0 0)
(0 0 0)
(0 0 0)
(0 0 0)
(0 0 0)
(0 0 0)
(0 0 0)
(0 0 0)
(0 0 0)
(0 0 0)
(0 0 0)
(0 0 0)
(0 0 0)
(0 0 0)
(0 0 0)
(0 0 0)
(0 0 0)
(0 0 0)
(-0.0368633147068 0.000804548298062 0)
(-0.00897301418977 0.000129047119521 0)
(-0.0147073166587 0.000211516087074 0)
(-0.0104938661767 0.000166059221597 0)
(-0.019731730641 0.00043064847617 0)
(0 0 0)
(0 0 0)
(0 0 0)
(0 0 0)
(0 0 0)
(0 0 0)
(0 0 0)
(0 0 0)
(0 0 0)
(0 0 0)
(-0.00543084758623 4.44123697638e-05 0)
(0 0 0)
(-0.00817248198924 0.000129324690709 0)
(0 0 0)
(0 0 0)
(-0.234952699329 -0.00690221871526 0.0200140488521)
(-0.103217556123 0.00224299087863 0)
(-0.200348865546 0.00378005001057 0)
(-0.0438293648033 0.000827135614699 0)
(-0.484840559657 -0.0183715441137 0.0485966916368)
(-0.053635400412 0.00117060200529 0)
(-0.105095631093 0.00198333559741 0)
(-0.662430012062 -0.0321452263658 0.0782423265917)
(-2.25144072036 -0.11117515537 0.271002535161)
(-0.423187691824 0.00798442573955 0)
(-0.425129906215 0.00762596458667 0.000650636726417)
(-1.27835410008 -0.0667458645573 0.159866604424)
(-0.225745801808 0.00425922262243 0)
(-1.17445169678 -0.0542569222396 0.134312893795)
(-0.0673285673882 0.000992493348113 0.000752673720505)
(-0.00926039112194 0.00014654020887 0)
(-0.0206440548589 0.000389588876822 0)
(-0.0205527986135 0.000387866714274 0)
(-0.0253350335994 0.000552941544346 0)
(-0.0253338149044 0.000552914946115 0)
(-0.0494878079514 0.000933920184188 0)
(-0.233355748612 -0.00668982823737 0.0195794311707)
(-0.108493013366 0.00183118189732 0.000841989540198)
(-0.198582266536 0.00374671898778 0)
(-0.043495090489 0.000820827282564 0)
(-0.0536305279551 0.00117049566306 0)
(-0.104727295506 0.00197638447038 0)
(-0.437208768012 -0.0129317312554 0.0374659626235)
(0 0 0)
(0 0 0)
(0 0 0)
(0 0 0)
(0 0 0)
(0 0 0)
(0 0 0)
(0 0 0)
(0 0 0)
(0 0 0)
(0 0 0)
(0 0 0)
(0 0 0)
(0 0 0)
(0 0 0)
(0 0 0)
(0 0 0)
(0 0 0)
(0 0 0)
(0 0 0)
(0 0 0)
(0 0 0)
(0 0 0)
(-0.00538737900368 4.40568925145e-05 0)
(0 0 0)
(-0.0081721855231 0.000129319999308 0)
(0 0 0)
(0 0 0)
(0 0 0)
(-0.0368584462602 0.000804442043362 0)
(-0.0145418192603 0.000209135954591 0)
(-0.0088076749092 0.000126669261039 0)
(-0.0197296115146 0.000430602225865 0)
(0 0 0)
(-0.0104925755956 0.000166038798915 0)
(0 0 0)
(0 0 0)
(0 0 0)
(0 0 0)
(0 0 0)
(0 0 0)
(0 0 0)
(0 0 0)
(0 0 0)
(0 0 0)
(0 0 0)
(0 0 0)
(0 0 0)
(0 0 0)
(0 0 0)
(0 0 0)
(0 0 0)
(0 0 0)
(0 0 0)
(0 0 0)
(0 0 0)
(0 0 0)
(0 0 0)
(0 0 0)
(0 0 0)
(0 0 0)
(0 0 0)
(0 0 0)
(0 0 0)
(0 0 0)
(0 0 0)
(0 0 0)
(0 0 0)
(0 0 0)
(0 0 0)
(0 0 0)
(-0.0150562688382 0.000279854126618 0)
(0 0 0)
(0 0 0)
(0 0 0)
(0 0 0)
(0 0 0)
(0 0 0)
(0 0 0)
(-0.00335947155799 6.24432247366e-05 0)
(0 0 0)
(0 0 0)
(0 0 0)
(0 0 0)
(0 0 0)
(0 0 0)
(0 0 0)
(0 0 0)
(0 0 0)
(0 0 0)
(0 0 0)
(0 0 0)
(0 0 0)
(0 0 0)
(0 0 0)
(0 0 0)
(0 0 0)
(0 0 0)
(0 0 0)
(0 0 0)
(0 0 0)
(0 0 0)
(0 0 0)
(0 0 0)
(0 0 0)
(0 0 0)
(0 0 0)
(-0.322216996899 0.00828963594447 0)
(-0.00773057685774 0.000143689904718 0)
(0 0 0)
(0 0 0)
(0 0 0)
(0 0 0)
(0 0 0)
(0 0 0)
(-0.0707491805564 0.00183747948333 0)
(0 0 0)
(0 0 0)
(0 0 0)
(0 0 0)
(0 0 0)
(0 0 0)
(0 0 0)
(0 0 0)
(0 0 0)
(0 0 0)
(0 0 0)
(0 0 0)
(0 0 0)
(0 0 0)
(0 0 0)
(0 0 0)
(0 0 0)
(0 0 0)
(0 0 0)
(0 0 0)
(0 0 0)
(0 0 0)
(0 0 0)
(0 0 0)
(0 0 0)
(0 0 0)
(0 0 0)
(-1.51931075659 0.0500189206228 0)
(-0.0432354620954 0.00145710250043 0)
(0 0 0)
(0 0 0)
(0 0 0)
(0 0 0)
(0 0 0)
(0 0 0)
(-0.333265440521 0.0108481688558 0)
(-0.00656941286562 0.000241637504803 0)
(0 0 0)
(0 0 0)
(0 0 0)
(0 0 0)
(0 0 0)
(0 0 0)
(0 0 0)
(0 0 0)
(0 0 0)
(0 0 0)
(0 0 0)
(0 0 0)
(0 0 0)
(0 0 0)
(0 0 0)
(0 0 0)
(0 0 0)
(0 0 0)
(0 0 0)
(0 0 0)
(0 0 0)
(0 0 0)
(0 0 0)
(0 0 0)
(0 0 0)
(0 0 0)
(0 0 0)
(0 0 0)
(0 0 0)
(0 0 0)
(0 0 0)
(0 0 0)
(0 0 0)
(-2.60099108918 0.0684796712612 0)
(-0.0785453456535 0.00206796535052 0)
(0 0 0)
(0 0 0)
(0 0 0)
(0 0 0)
(0 0 0)
(0 0 0)
(-2.60083703611 0.0684756153058 0)
(-0.580327474409 0.0152790353018 0)
(-0.0162884591708 0.000438414599782 0)
(0 0 0)
(0 0 0)
(0 0 0)
(0 0 0)
(0 0 0)
(0 0 0)
(-0.0476357026217 0.00125416702479 0)
(-0.0785380835426 0.00206777415149 0)
(-0.0162883189164 0.000438410824743 0)
(0 0 0)
(0 0 0)
(0 0 0)
(0 0 0)
(0 0 0)
(0 0 0)
(0 0 0)
(0 0 0)
(0 0 0)
(0 0 0)
(0 0 0)
(0 0 0)
(0 0 0)
(0 0 0)
(0 0 0)
(0 0 0)
(0 0 0)
(0 0 0)
(0 0 0)
(0 0 0)
(0 0 0)
(0 0 0)
(0 0 0)
(0 0 0)
(0 0 0)
(0 0 0)
(-0.0444427809697 0.000677060513648 0)
(-0.0012825594592 1.9514947952e-05 0)
(0 0 0)
(0 0 0)
(0 0 0)
(0 0 0)
(0 0 0)
(0 0 0)
(-0.0236691243275 0.000360585659248 0)
(-0.0429724368249 0.00065466065612 0)
(-0.00984591651916 0.000149811805631 0)
(-0.000237151321197 1.87122191424e-06 0)
(0 0 0)
(0 0 0)
(0 0 0)
(0 0 0)
(0 0 0)
(0 0 0)
(-0.000716067718629 8.9228163517e-06 0)
(-0.00123044441031 1.87219847414e-05 0)
(-0.000229183568114 1.80835305018e-06 0)
(0 0 0)
(0 0 0)
(0 0 0)
(0 0 0)
(0 0 0)
(0 0 0)
(0 0 0)
(0 0 0)
(0 0 0)
(0 0 0)
(0 0 0)
(0 0 0)
(0 0 0)
(0 0 0)
(0 0 0)
(0 0 0)
(0 0 0)
(0 0 0)
(0 0 0)
(0 0 0)
(0 0 0)
(0 0 0)
(0 0 0)
(0 0 0)
(0 0 0)
(0 0 0)
(-0.000202901757208 1.69869209338e-06 0)
(-0.000200582114957 1.67927206467e-06 0)
(-2.59452716111e-05 1.82937038776e-07 0)
(0 0 0)
(0 0 0)
(0 0 0)
(0 0 0)
(0 0 0)
(0 0 0)
(0 0 0)
(-2.61542606057e-05 1.84410595437e-07 0)
(-2.59819193151e-05 1.83195437399e-07 0)
(-2.66889874903e-06 1.58499775611e-08 0)
(0 0 0)
(0 0 0)
(0 0 0)
(0 0 0)
(0 0 0)
(0 0 0)
(0 0 0)
(0 0 0)
(0 0 0)
(0 0 0)
(0 0 0)
(0 0 0)
(0 0 0)
(0 0 0)
(0 0 0)
(0 0 0)
(0 0 0)
(0 0 0)
(0 0 0)
(0 0 0)
(0 0 0)
(0 0 0)
(0 0 0)
(0 0 0)
(0 0 0)
(0 0 0)
(0 0 0)
(0 0 0)
(0 0 0)
(0 0 0)
(0 0 0)
(0 0 0)
(0 0 0)
(0 0 0)
(0 0 0)
(0 0 0)
(-0.00335951867605 6.24441005303e-05 0)
(-0.00913200137086 0.00016973848537 0)
(-0.00203762294421 3.78737385442e-05 0)
(-0.0867872343046 0.00193804677653 0)
(-0.0177878355629 0.000330626348358 0)
(-0.0526378524326 0.00117545651786 0)
(-0.0107885522447 0.00020052915489 0)
(0 0 0)
(0 0 0)
(0 0 0)
(-0.00240731221252 4.47452329639e-05 0)
(0 0 0)
(0 0 0)
(0 0 0)
(0 0 0)
(0 0 0)
(0 0 0)
(-0.0177867594522 0.000330606346457 0)
(-0.00396875425497 7.37680940559e-05 0)
(-0.00396874163407 7.37678594684e-05 0)
(0 0 0)
(0 0 0)
(0 0 0)
(0 0 0)
(0 0 0)
(0 0 0)
(0 0 0)
(0 0 0)
(-0.0707526256586 0.00183756895863 0)
(-0.195432714387 0.00502787273638 0)
(-0.0429134805707 0.00111453785735 0)
(-0.803484906786 0.0238534739329 0)
(-0.177077018566 0.00530941444102 0)
(-0.487338661043 0.0144678760603 0)
(-0.107402380908 0.00322031484838 0)
(0 0 0)
(-0.00468883357443 8.715236417e-05 0)
(0 0 0)
(-0.0228201902644 0.000706429279417 0)
(0 0 0)
(-0.0122046753791 0.000368060281252 0)
(0 0 0)
(-0.0149462699968 0.00037898665742 0)
(-0.0149458070033 0.000378974917475 0)
(-0.00284373065242 5.28570369341e-05 0)
(-0.177068511672 0.00530915937334 0)
(-0.037623066991 0.0011646719767 0)
(-0.0376215159867 0.00116462396331 0)
(-0.0074020901018 0.00022322718795 0)
(0 0 0)
(0 0 0)
(0 0 0)
(-0.00335964645524 6.24464755897e-05 0)
(0 0 0)
(0 0 0)
(0 0 0)
(-0.333282726528 0.010848731535 0)
(-0.905926859322 0.0294889488859 0)
(-0.202142760135 0.00657997658414 0)
(-2.2416723492 0.0709258946571 0)
(-0.49446730376 0.0155138222688 0)
(-1.34407448465 0.0421700939828 0)
(-0.299911339506 0.00940966406096 0)
(0 0 0)
(-0.0262232472402 0.00088376432843 0)
(0 0 0)
(-0.0669183858047 0.00209955225755 0)
(0 0 0)
(-0.0405884945145 0.00127345667806 0)
(0 0 0)
(-0.0743630722656 0.00242060251826 0)
(-0.0743598817931 0.00242049866476 0)
(-0.0140177368074 0.000516028794645 0)
(-0.494442978023 0.0155130590532 0)
(-0.110326342711 0.00346146905847 0)
(-0.110321663827 0.00346132225933 0)
(-0.0246160831422 0.000772325158648 0)
(0 0 0)
(0 0 0)
(0 0 0)
(-0.0133490320532 0.000459064549303 0)
(0 0 0)
(0 0 0)
(0 0 0)
(-7.25960777437 0.196478109457 0)
(-4.31380098544 0.114298409869 0)
(-4.41121873282 0.0832279602493 0)
(-2.08733748159 0.0393825043524 0)
(-0.580375329776 0.0152802952522 0)
(-1.57755030392 0.0415342161914 0)
(-0.352003519864 0.00926765394287 0)
(-2.68188192549 0.0505999760626 0)
(-0.284503476681 0.00536782360662 0)
(-1.26759538915 0.0239161522133 0)
(-0.134474064186 0.00253716778662 0)
(0 0 0)
(-0.0476386619789 0.00125424493963 0)
(0 0 0)
(-0.103434653114 0.00195199008174 0)
(0 0 0)
(-0.0488452252297 0.00092179354131 0)
(0 0 0)
(0 0 0)
(0 0 0)
(0 0 0)
(0 0 0)
(0 0 0)
(0 0 0)
(0 0 0)
(0 0 0)
(0 0 0)
(0 0 0)
(0 0 0)
(0 0 0)
(0 0 0)
(0 0 0)
(0 0 0)
(0 0 0)
(0 0 0)
(0 0 0)
(0 0 0)
(0 0 0)
(0 0 0)
(0 0 0)
(0 0 0)
(0 0 0)
(0 0 0)
(0 0 0)
(0 0 0)
(0 0 0)
(0 0 0)
(0 0 0)
(0 0 0)
(0 0 0)
(0 0 0)
(0 0 0)
(0 0 0)
(0 0 0)
(0 0 0)
(0 0 0)
(0 0 0)
(0 0 0)
(0 0 0)
(0 0 0)
(-1.96936874237 -0.152675674662 0.331332210753)
(-0.766297366289 -0.00271678852422 0.0368189521226)
(-1.33301517123 0.0204410559757 0.00800819181794)
(-2.70321019599 0.0510023837774 0)
(-0.136046263652 0.00256683100729 0)
(-0.286741743439 0.00541005374483 0)
(-1.57749373328 0.0415327267828 0)
(-0.580327094432 0.0152790252977 0)
(-0.351986417093 0.009267203656 0)
(-2.69274712141 0.0508049733999 0)
(-1.26853557115 0.0239338909461 0)
(-0.286316338951 0.00540202749405 0)
(-0.134780401406 0.00254294755487 0)
(-0.129488705643 0.00340921736769 0)
(-0.129488694203 0.00340921706649 0)
(-0.028892807879 0.000760698486662 0)
(-0.769840215785 0.014524836504 0)
(-0.0803266279619 0.00151590184102 0)
(-0.0804781209084 0.00151876077388 0)
(-0.00605674692258 4.95308475557e-05 0)
(0 0 0)
(0 0 0)
(0 0 0)
(-0.0296123754976 0.000558836536186 0)
(0 0 0)
(0 0 0)
(0 0 0)
(0 0 0)
(0 0 0)
(0 0 0)
(0 0 0)
(0 0 0)
(0 0 0)
(0 0 0)
(0 0 0)
(0 0 0)
(0 0 0)
(0 0 0)
(0 0 0)
(0 0 0)
(0 0 0)
(0 0 0)
(0 0 0)
(0 0 0)
(0 0 0)
(0 0 0)
(0 0 0)
(0 0 0)
(0 0 0)
(0 0 0)
(0 0 0)
(0 0 0)
(0 0 0)
(0 0 0)
(0 0 0)
(0 0 0)
(0 0 0)
(0 0 0)
(0 0 0)
(0 0 0)
(0 0 0)
(0 0 0)
(0 0 0)
(0 0 0)
(0 0 0)
(0 0 0)
(0 0 0)
(0 0 0)
(0 0 0)
(-0.0785380743052 0.00206777390829 0)
(0 0 0)
(0 0 0)
(-0.0492049632545 0.000928582417527 0)
(-0.104003771347 0.00196273032315 0)
(0 0 0)
(0 0 0)
(-0.0476357850047 0.00125416919379 0)
(0 0 0)
(0 0 0)
(-0.103940002761 0.00196152690009 0)
(-0.0489151865676 0.000923113832273 0)
(0 0 0)
(0 0 0)
(0 0 0)
(0 0 0)
(0 0 0)
(-0.0296536855432 0.000559616127907 0)
(0 0 0)
(0 0 0)
(0 0 0)
(0 0 0)
(0 0 0)
(0 0 0)
(0 0 0)
(0 0 0)
(0 0 0)
(0 0 0)
(0 0 0)
(0 0 0)
(0 0 0)
(0 0 0)
(0 0 0)
(0 0 0)
(0 0 0)
(0 0 0)
(0 0 0)
(0 0 0)
(0 0 0)
(0 0 0)
(0 0 0)
(0 0 0)
(0 0 0)
(0 0 0)
(0 0 0)
(0 0 0)
(0 0 0)
(0 0 0)
(0 0 0)
(0 0 0)
(0 0 0)
(0 0 0)
(0 0 0)
(0 0 0)
(0 0 0)
(0 0 0)
(0 0 0)
(0 0 0)
(0 0 0)
(0 0 0)
(0 0 0)
(0 0 0)
(0 0 0)
(0 0 0)
(0 0 0)
(0 0 0)
(0 0 0)
(0 0 0)
(0 0 0)
(0 0 0)
(0 0 0)
(0 0 0)
(0 0 0)
(0 0 0)
(0 0 0)
(0 0 0)
(0 0 0)
(0 0 0)
(0 0 0)
(0 0 0)
(0 0 0)
(0 0 0)
(0 0 0)
(0 0 0)
(0 0 0)
(0 0 0)
(0 0 0)
(0 0 0)
(0 0 0)
(0 0 0)
(0 0 0)
(0 0 0)
(0 0 0)
(0 0 0)
(0 0 0)
(0 0 0)
(0 0 0)
(0 0 0)
(0 0 0)
(0 0 0)
(0 0 0)
(0 0 0)
(0 0 0)
(0 0 0)
(0 0 0)
(0 0 0)
(0 0 0)
(0 0 0)
(0 0 0)
(0 0 0)
(0 0 0)
(0 0 0)
(0 0 0)
(0 0 0)
(0 0 0)
(0 0 0)
(0 0 0)
(0 0 0)
(0 0 0)
(0 0 0)
(0 0 0)
(0 0 0)
(0 0 0)
(0 0 0)
(0 0 0)
(0 0 0)
(0 0 0)
(0 0 0)
(0 0 0)
(0 0 0)
(0 0 0)
(0 0 0)
(0 0 0)
(0 0 0)
(0 0 0)
(0 0 0)
(0 0 0)
(0 0 0)
(0 0 0)
(0 0 0)
(0 0 0)
(0 0 0)
(0 0 0)
(0 0 0)
(0 0 0)
(0 0 0)
(0 0 0)
(0 0 0)
(0 0 0)
(0 0 0)
(0 0 0)
(0 0 0)
(0 0 0)
(0 0 0)
(0 0 0)
(0 0 0)
(0 0 0)
(0 0 0)
(0 0 0)
(0 0 0)
(0 0 0)
(0 0 0)
(0 0 0)
(0 0 0)
(0 0 0)
(0 0 0)
(0 0 0)
(0 0 0)
(0 0 0)
(0 0 0)
(0 0 0)
(0 0 0)
(0 0 0)
(0 0 0)
(0 0 0)
(0 0 0)
(0 0 0)
(0 0 0)
(0 0 0)
(0 0 0)
(0 0 0)
(0 0 0)
(0 0 0)
(0 0 0)
(0 0 0)
(0 0 0)
(0 0 0)
(0 0 0)
(0 0 0)
(0 0 0)
(0 0 0)
(-0.00209619365675 2.4608896715e-05 0)
(-0.00315035213658 3.69845076553e-05 0)
(-0.00126465261713 1.48352906031e-05 0)
(-0.00187226737893 2.19800467398e-05 0)
(-0.117912083173 0.00179632358409 0)
(-0.0722634631283 0.00110089279735 0)
(-0.00282848022001 3.3205795357e-05 0)
(-0.0015784731269 1.85309606401e-05 0)
(-0.00168885786352 1.98268554987e-05 0)
(-0.000974163834241 1.14276469128e-05 0)
(-0.00976002543587 0.000148504918837 0)
(-0.0272586666746 0.000415270297165 0)
(-0.0059646375438 9.07557075698e-05 0)
(-0.000600537580056 7.04474050622e-06 0)
(-0.000140005496148 1.64236581117e-06 0)
(-0.000360029915254 4.22341150941e-06 0)
(-8.48390520288e-05 9.95223490062e-07 0)
(0 0 0)
(-0.00075288939599 9.38164595161e-06 0)
(0 0 0)
(-1.61962494093e-05 1.21893689516e-07 0)
(0 0 0)
(-1.01901914337e-05 7.66918315056e-08 0)
(0 0 0)
(0 0 0)
(0 0 0)
(0 0 0)
(0 0 0)
(0 0 0)
(0 0 0)
(0 0 0)
(0 0 0)
(0 0 0)
(0 0 0)
(0 0 0)
(0 0 0)
(0 0 0)
(0 0 0)
(0 0 0)
(0 0 0)
(0 0 0)
(0 0 0)
(0 0 0)
(0 0 0)
(0 0 0)
(0 0 0)
(0 0 0)
(0 0 0)
(0 0 0)
(0 0 0)
(0 0 0)
(0 0 0)
(0 0 0)
(0 0 0)
(0 0 0)
(0 0 0)
(0 0 0)
(0 0 0)
(0 0 0)
(0 0 0)
(0 0 0)
(0 0 0)
(0 0 0)
(0 0 0)
(0 0 0)
(0 0 0)
(-0.0404929642523 0.000616887300427 0)
(-0.00539018095715 8.20149896961e-05 0)
(-0.00906436725536 0.000137920042566 0)
(-0.000442800757114 5.19437339713e-06 0)
(-0.000672262807088 7.88612933678e-06 0)
(-9.83056703089e-05 1.15319667014e-06 0)
(-0.000153203668115 1.79718992168e-06 0)
(-0.0264199589535 0.000402493061625 0)
(-0.00928499495256 0.00014127703159 0)
(-0.00572350653201 8.70867477326e-05 0)
(-0.000636647084679 7.4683311329e-06 0)
(-0.000368348634401 4.32099610641e-06 0)
(-0.000145602027272 1.70801717224e-06 0)
(-8.38971417659e-05 9.84174200887e-07 0)
(-0.00219999374726 3.34742870319e-05 0)
(-0.00214142148097 3.25830732016e-05 0)
(-0.000459476296955 5.72546773025e-06 0)
(-0.00012939599238 1.5179086524e-06 0)
(-2.82414329575e-05 2.94066187726e-07 0)
(-2.87694954137e-05 2.99564680441e-07 0)
(-3.73735827815e-06 2.21953136544e-08 0)
(0 0 0)
(0 0 0)
(0 0 0)
(0 0 0)
(0 0 0)
(0 0 0)
(0 0 0)
(0 0 0)
(0 0 0)
(0 0 0)
(0 0 0)
(0 0 0)
(0 0 0)
(0 0 0)
(0 0 0)
(0 0 0)
(0 0 0)
(0 0 0)
(0 0 0)
(0 0 0)
(0 0 0)
(0 0 0)
(0 0 0)
(0 0 0)
(0 0 0)
(0 0 0)
(0 0 0)
(0 0 0)
(0 0 0)
(0 0 0)
(0 0 0)
(0 0 0)
(0 0 0)
(0 0 0)
(0 0 0)
(0 0 0)
(0 0 0)
(0 0 0)
(0 0 0)
(0 0 0)
(0 0 0)
(0 0 0)
(0 0 0)
(0 0 0)
(0 0 0)
(0 0 0)
(0 0 0)
(0 0 0)
(0 0 0)
(-0.00124158087284 1.88914330153e-05 0)
(0 0 0)
(0 0 0)
(-1.17847727484e-05 8.86927210186e-08 0)
(-1.95562805698e-05 1.47181432664e-07 0)
(0 0 0)
(0 0 0)
(-0.000719143575359 8.96114415787e-06 0)
(0 0 0)
(0 0 0)
(-1.79772377685e-05 1.35297486691e-07 0)
(-1.01227698659e-05 7.61844138036e-08 0)
(0 0 0)
(0 0 0)
(0 0 0)
(0 0 0)
(0 0 0)
(0 0 0)
(0 0 0)
(0 0 0)
(0 0 0)
(0 0 0)
(0 0 0)
(0 0 0)
(0 0 0)
(0 0 0)
(0 0 0)
(0 0 0)
(0 0 0)
(0 0 0)
(0 0 0)
(0 0 0)
(0 0 0)
(0 0 0)
(0 0 0)
(0 0 0)
(0 0 0)
(0 0 0)
(0 0 0)
(0 0 0)
(0 0 0)
(0 0 0)
(0 0 0)
(0 0 0)
(0 0 0)
(0 0 0)
(0 0 0)
(0 0 0)
(0 0 0)
(0 0 0)
(0 0 0)
(0 0 0)
(0 0 0)
(0 0 0)
(0 0 0)
(0 0 0)
(0 0 0)
(0 0 0)
(0 0 0)
(0 0 0)
(0 0 0)
(0 0 0)
(0 0 0)
(0 0 0)
(0 0 0)
(0 0 0)
(0 0 0)
(0 0 0)
(0 0 0)
(0 0 0)
(0 0 0)
(0 0 0)
(0 0 0)
(0 0 0)
(0 0 0)
(0 0 0)
(0 0 0)
(0 0 0)
(0 0 0)
(0 0 0)
(0 0 0)
(0 0 0)
(0 0 0)
(0 0 0)
(0 0 0)
(0 0 0)
(0 0 0)
(0 0 0)
(0 0 0)
(0 0 0)
(0 0 0)
(0 0 0)
(0 0 0)
(0 0 0)
(0 0 0)
(0 0 0)
(0 0 0)
(0 0 0)
(0 0 0)
(0 0 0)
(0 0 0)
(0 0 0)
(0 0 0)
(0 0 0)
(0 0 0)
(0 0 0)
(0 0 0)
(0 0 0)
(0 0 0)
(0 0 0)
(0 0 0)
(0 0 0)
(0 0 0)
(0 0 0)
(0 0 0)
(0 0 0)
(0 0 0)
(0 0 0)
(0 0 0)
(0 0 0)
(0 0 0)
(0 0 0)
(0 0 0)
(0 0 0)
(0 0 0)
(0 0 0)
(0 0 0)
(0 0 0)
(0 0 0)
(0 0 0)
(0 0 0)
(0 0 0)
(0 0 0)
(0 0 0)
(0 0 0)
(0 0 0)
(0 0 0)
(0 0 0)
(0 0 0)
(0 0 0)
(0 0 0)
(0 0 0)
(0 0 0)
(0 0 0)
(0 0 0)
(0 0 0)
(0 0 0)
(0 0 0)
(0 0 0)
(0 0 0)
(0 0 0)
(0 0 0)
(0 0 0)
(0 0 0)
(0 0 0)
(0 0 0)
(0 0 0)
(0 0 0)
(0 0 0)
(0 0 0)
(0 0 0)
(0 0 0)
(0 0 0)
(0 0 0)
(0 0 0)
(0 0 0)
(0 0 0)
(0 0 0)
(0 0 0)
(0 0 0)
(0 0 0)
(0 0 0)
(0 0 0)
(0 0 0)
(0 0 0)
(0 0 0)
(0 0 0)
(0 0 0)
(0 0 0)
(0 0 0)
(0 0 0)
(0 0 0)
(0 0 0)
(0 0 0)
(0 0 0)
(0 0 0)
(0 0 0)
(0 0 0)
(0 0 0)
(0 0 0)
(0 0 0)
(0 0 0)
(0 0 0)
(0 0 0)
(0 0 0)
(0 0 0)
(-7.25230176305 0.15814085623 0)
(-5.63506513275 0.122453971669 0)
(-6.41054465427 0.12094992064 0)
(-3.89432988453 0.0734756430046 0)
(-4.97292944128 0.108065292338 0)
(-5.66239218929 0.106834274288 0)
(-8.22639593717 0.179660980289 0)
(-5.63494323056 0.122451322648 0)
(-2.66177637104 0.0578422929729 0)
(-3.03456618521 0.057254189632 0)
(-3.03611713227 0.0572834518762 0)
(-3.8728186252 0.0841591021644 0)
(-3.87290616197 0.0841610044008 0)
(-4.4124054645 0.0832503507186 0)
(-1.61447704758 0.0350837340808 0)
(-3.41784743914 0.0742722548228 0)
(-1.43857616732 0.0271421045569 0)
(-2.36473904737 0.0446163337969 0)
(-3.01622724306 0.065544762424 0)
(-1.26864266611 0.023935911543 0)
(-1.82943799022 0.0397549881941 0)
(-0.762633014973 0.0165725576208 0)
(-0.360233849911 0.00782813767226 0)
(-0.680963331098 0.0128479661709 0)
(-0.25116196157 0.00473875793059 0)
(-0.317910840696 0.00690842859183 0)
(-0.601059469705 0.0113403929123 0)
(-0.864158714572 0.0187787832543 0)
(-1.2573250389 0.0273225670095 0)
(-1.61443527016 0.0350828262278 0)
(-1.84226859669 0.0347587065664 0)
(-0.679846906753 0.0128269022141 0)
(-2.34897594229 0.051044917266 0)
(-0.864134963193 0.01877826712 0)
(-0.988074409431 0.0186423350671 0)
(-0.593922580311 0.0129063599284 0)
(-0.170162782081 0.00369775823442 0)
(-0.195743225634 0.00369315383998 0)
(-0.321822204284 0.00607192869994 0)
(-0.247590179749 0.00538031063393 0)
(-0.408191896266 0.00887030011606 0)
(-0.468182704261 0.00883336190285 0)
(-0.0368600656253 0.00080447738629 0)
(-0.132521484172 0.00287978606921 0)
(-0.0337111398332 0.000636187279767 0)
(-0.0912689165243 0.00172240167547 0)
(-0.116948040492 0.00254136406588 0)
(-0.0297204900502 0.000560876844032 0)
(-0.0417684466153 0.000911603660829 0)
(-0.0092601967294 0.000146537132723 0)
(0 0 0)
(-0.00882712003656 0.000126948914857 0)
(0 0 0)
(0 0 0)
(-0.00609941967048 4.98798166306e-05 0)
(-0.0104940035927 0.000166061396124 0)
(-0.0287069402389 0.000626533997159 0)
(-0.062599551944 0.00136033276984 0)
(-0.0710815238279 0.00134143080031 0)
(-0.0144601614963 0.000207961577842 0)
(-0.0910839671148 0.00197931936293 0)
(-0.0197295366962 0.00043060059294 0)
(-0.0231154373007 0.000436228120726 0)
(-0.00532880307384 4.46096174387e-05 0)
(0 0 0)
(0 0 0)
(0 0 0)
(0 0 0)
(0 0 0)
(-0.00473983957125 3.87614464073e-05 0)
(0 0 0)
(0 0 0)
(0 0 0)
(0 0 0)
(0 0 0)
(0 0 0)
(0 0 0)
(0 0 0)
(0 0 0)
(0 0 0)
(0 0 0)
(0 0 0)
(0 0 0)
(0 0 0)
(0 0 0)
(0 0 0)
(0 0 0)
(0 0 0)
(0 0 0)
(0 0 0)
(0 0 0)
(0 0 0)
(0 0 0)
(0 0 0)
(0 0 0)
(0 0 0)
(0 0 0)
(0 0 0)
(0 0 0)
(0 0 0)
(0 0 0)
(0 0 0)
(0 0 0)
(0 0 0)
(0 0 0)
(0 0 0)
(0 0 0)
(0 0 0)
(0 0 0)
(0 0 0)
(0 0 0)
(0 0 0)
(0 0 0)
(0 0 0)
(0 0 0)
(0 0 0)
(0 0 0)
(0 0 0)
(0 0 0)
(0 0 0)
(0 0 0)
(0 0 0)
(0 0 0)
(0 0 0)
(0 0 0)
(0 0 0)
(0 0 0)
(0 0 0)
(0 0 0)
(0 0 0)
(0 0 0)
(0 0 0)
(0 0 0)
(0 0 0)
(0 0 0)
(0 0 0)
(0 0 0)
(0 0 0)
(0 0 0)
(0 0 0)
(0 0 0)
(0 0 0)
(0 0 0)
(0 0 0)
(0 0 0)
(0 0 0)
(0 0 0)
(0 0 0)
(0 0 0)
(0 0 0)
(0 0 0)
(0 0 0)
(0 0 0)
(0 0 0)
(0 0 0)
(0 0 0)
(0 0 0)
(0 0 0)
(0 0 0)
(0 0 0)
(0 0 0)
(0 0 0)
(0 0 0)
(0 0 0)
(0 0 0)
(0 0 0)
(0 0 0)
(0 0 0)
(0 0 0)
(0 0 0)
(0 0 0)
(0 0 0)
(0 0 0)
(0 0 0)
(0 0 0)
(0 0 0)
(0 0 0)
(0 0 0)
(0 0 0)
(0 0 0)
(0 0 0)
(0 0 0)
(0 0 0)
(0 0 0)
(0 0 0)
(0 0 0)
(0 0 0)
(0 0 0)
(0 0 0)
(0 0 0)
(0 0 0)
(0 0 0)
(0 0 0)
(0 0 0)
(0 0 0)
(0 0 0)
(0 0 0)
(0 0 0)
(0 0 0)
(0 0 0)
(0 0 0)
(0 0 0)
(0 0 0)
(0 0 0)
(0 0 0)
(0 0 0)
(0 0 0)
(0 0 0)
(0 0 0)
(0 0 0)
(0 0 0)
(0 0 0)
(0 0 0)
(0 0 0)
(0 0 0)
(0 0 0)
(0 0 0)
(0 0 0)
(0 0 0)
(0 0 0)
(0 0 0)
(0 0 0)
(0 0 0)
(0 0 0)
(0 0 0)
(0 0 0)
(0 0 0)
(0 0 0)
(0 0 0)
(0 0 0)
(0 0 0)
(0 0 0)
(0 0 0)
(0 0 0)
(0 0 0)
(0 0 0)
(0 0 0)
(0 0 0)
(-1.63922687167 -0.0109183377296 0.0782416567978)
(-2.88669916974 -0.0973688736799 0.270999718608)
(-1.87193801164 0.0353184894829 0)
(-0.696367748994 0.0127445772326 0.000648864414015)
(-3.10329225808 -0.0270851036572 0.15986058819)
(-1.00315929088 0.0189269466426 0)
(-1.5144751149 -0.0468677043709 0.134312443864)
(-1.71686494126 0.0253012546781 0.0200132708377)
(-3.41800331521 0.0742756421205 0)
(-2.39769474241 0.0452381200747 0)
(-1.45133291367 0.0273827904177 0)
(-3.25365149369 0.0417972647256 0.0485957187526)
(-1.82944974817 0.0397552437027 0)
(-1.28374116047 0.0242207799579 0)
(-0.694740100519 0.00333683696276 0.0195786733444)
(-0.175444306843 0.00328608077806 0.00084199006249)
(-0.326904362898 0.00616781551052 0)
(-0.197830977629 0.00373254416511 0)
(-0.247577800668 0.00538004162769 0)
(-0.474246873703 0.00894777664486 0)
(-0.597818122899 -0.00944137962738 0.0374656350076)
(-0.76733913226 0.0162042382574 0.000752645489015)
(-0.360230448391 0.00782806375483 0)
(-0.687051264379 0.0129628292734 0)
(-0.253628277443 0.00478529074881 0)
(-0.864155083542 0.0187787043495 0)
(-0.31789664474 0.00690812010362 0)
(-0.607225734961 0.0114567339306 0)
(-1.61437261636 0.0350814647162 0)
(-3.41788229927 0.0742730123582 0)
(-2.37215616322 0.0447562750378 0)
(-1.44663688773 0.0272941889033 0)
(-3.0160835865 0.0655416406648 0)
(-1.82940726482 0.0397543205093 0)
(-1.27290952507 0.0240164158184 0)
(-1.25724915485 0.0273209179951 0)
(-1.61433796955 0.0350807118164 0)
(-1.84571126482 0.0348236605537 0)
(-0.681174260593 0.0128519458493 0)
(-2.34884653104 0.0510421050675 0)
(-0.864097626224 0.0187774557611 0)
(-0.99101962533 0.0186979034546 0)
(-0.762559974792 0.0165709704058 0)
(-0.360236183497 0.00782818838275 0)
(-0.685378741108 0.0129312732094 0)
(-0.252421774113 0.0047625272412 0)
(-0.864132003106 0.0187782027952 0)
(-0.317902515637 0.00690824768239 0)
(-0.603161883783 0.0113800598719 0)
(-0.593879422905 0.0129054220873 0)
(-0.170160168904 0.00369770144823 0)
(-0.322702194572 0.00608853177522 0)
(-0.196323204834 0.0037040965043 0)
(-0.408169728794 0.00886981840112 0)
(-0.247581326096 0.00538011823774 0)
(-0.469547245886 0.0088591071726 0)
(-0.280532111802 0.00609616223799 0)
(-0.979150329849 0.0212776328093 0)
(-0.412680875392 0.0077861900697 0)
(-0.413223331267 0.00779642476872 0)
(-0.524103766457 0.0113891474646 0)
(-0.524102669648 0.0113891236302 0)
(-0.221257804036 0.00417454604601 0)
(-0.132513921871 0.00287962173503 0)
(-0.103206257741 0.00224274535676 0)
(-0.195294180262 0.00368468154863 0)
(-0.0430059507692 0.000811596373454 0)
(-0.247572087806 0.00537991748315 0)
(-0.0536283758847 0.00117044869375 0)
(-0.103002506774 0.00194383473587 0)
(-0.132512956493 0.00287960075669 0)
(-0.103207191655 0.00224276565137 0)
(-0.195685083265 0.00369205684819 0)
(-0.0430717358947 0.000812837852094 0)
(-0.247568018171 0.00537982904709 0)
(-0.0536305974106 0.00117049717894 0)
(-0.103130434929 0.00194624896053 0)
(-0.0625937604912 0.00136020691745 0)
(-0.00925974086861 0.000146529918996 0)
(-0.0203348217082 0.000383753114581 0)
(-0.0203461683763 0.000383967245755 0)
(-0.0253316438941 0.000552867563435 0)
(-0.0253329318157 0.00055289567255 0)
(-0.0487338081688 0.000919690909443 0)
(0 0 0)
(-0.0368598691397 0.000804473097956 0)
(-0.00876945519583 0.000126119596922 0)
(-0.0144302583743 0.000207531520375 0)
(-0.0104929487164 0.000166044703331 0)
(-0.019728927062 0.000430587287566 0)
(0 0 0)
(0 0 0)
(0 0 0)
(0 0 0)
(0 0 0)
(0 0 0)
(0 0 0)
(0 0 0)
(0 0 0)
(0 0 0)
(-0.00534676477474 4.372475759e-05 0)
(0 0 0)
(-0.00817141380887 0.000129307787387 0)
(0 0 0)
(0 0 0)
(0 0 0)
(0 0 0)
(0 0 0)
(0 0 0)
(0 0 0)
(0 0 0)
(0 0 0)
(0 0 0)
(0 0 0)
(0 0 0)
(0 0 0)
(0 0 0)
(0 0 0)
(0 0 0)
(0 0 0)
(0 0 0)
(0 0 0)
(0 0 0)
(0 0 0)
(0 0 0)
(0 0 0)
(0 0 0)
(0 0 0)
(0 0 0)
(0 0 0)
(0 0 0)
(0 0 0)
(0 0 0)
(0 0 0)
(0 0 0)
(0 0 0)
(0 0 0)
(0 0 0)
(0 0 0)
(0 0 0)
(0 0 0)
(0 0 0)
(0 0 0)
(0 0 0)
(0 0 0)
(0 0 0)
(0 0 0)
(0 0 0)
(0 0 0)
(0 0 0)
(0 0 0)
(0 0 0)
(0 0 0)
(0 0 0)
(0 0 0)
(0 0 0)
(0 0 0)
(0 0 0)
(0 0 0)
(0 0 0)
(0 0 0)
(0 0 0)
(0 0 0)
(0 0 0)
(0 0 0)
(0 0 0)
(0 0 0)
(0 0 0)
(0 0 0)
(0 0 0)
(0 0 0)
(0 0 0)
(0 0 0)
(0 0 0)
(0 0 0)
(0 0 0)
(0 0 0)
(0 0 0)
(0 0 0)
(0 0 0)
(0 0 0)
(0 0 0)
(0 0 0)
(0 0 0)
(0 0 0)
(0 0 0)
(0 0 0)
(0 0 0)
(0 0 0)
(0 0 0)
(0 0 0)
(0 0 0)
(0 0 0)
(0 0 0)
(0 0 0)
(0 0 0)
(0 0 0)
(0 0 0)
(0 0 0)
(0 0 0)
(0 0 0)
(0 0 0)
(0 0 0)
(0 0 0)
(0 0 0)
(0 0 0)
(0 0 0)
(0 0 0)
(0 0 0)
(0 0 0)
(0 0 0)
(0 0 0)
(0 0 0)
(0 0 0)
(0 0 0)
(0 0 0)
(0 0 0)
(0 0 0)
(0 0 0)
(0 0 0)
(0 0 0)
(0 0 0)
(0 0 0)
(0 0 0)
(0 0 0)
(0 0 0)
(0 0 0)
(0 0 0)
(0 0 0)
(0 0 0)
(0 0 0)
(0 0 0)
(0 0 0)
(0 0 0)
(0 0 0)
(0 0 0)
(0 0 0)
(0 0 0)
(0 0 0)
(0 0 0)
(0 0 0)
(0 0 0)
(0 0 0)
(0 0 0)
(0 0 0)
(0 0 0)
(0 0 0)
(0 0 0)
(0 0 0)
(0 0 0)
(0 0 0)
(0 0 0)
(0 0 0)
(0 0 0)
(0 0 0)
(0 0 0)
(0 0 0)
(0 0 0)
(0 0 0)
(0 0 0)
(0 0 0)
(0 0 0)
(0 0 0)
(0 0 0)
(0 0 0)
(0 0 0)
(0 0 0)
(0 0 0)
(0 0 0)
(0 0 0)
(0 0 0)
(0 0 0)
(0 0 0)
(0 0 0)
(0 0 0)
(0 0 0)
(0 0 0)
(0 0 0)
(0 0 0)
(0 0 0)
(-0.0287052087308 0.000626496206692 0)
(-0.0625955780585 0.00136024641448 0)
(-0.0715844712738 0.00135092228499 0)
(-0.0145242292502 0.000208882980497 0)
(-0.0910764744115 0.00197915654116 0)
(-0.0232230461075 0.000438258884277 0)
(-0.0197287198499 0.000430582765125 0)
(-0.0368584345316 0.000804441787384 0)
(-0.132519346033 0.00287973960592 0)
(-0.0918619910106 0.00173359401267 0)
(-0.0337916104144 0.000637705898252 0)
(-0.116945578909 0.00254131057392 0)
(-0.0417663594263 0.000911558107565 0)
(-0.0298234897756 0.000562820626278 0)
(-0.00532843179112 4.46065092773e-05 0)
(0 0 0)
(0 0 0)
(0 0 0)
(0 0 0)
(-0.00474893960423 3.88358646308e-05 0)
(0 0 0)
(-0.00925958755834 0.000146527492952 0)
(0 0 0)
(-0.00881442297449 0.00012676630963 0)
(0 0 0)
(-0.0104925815521 0.000166038893173 0)
(0 0 0)
(-0.00610000851608 4.98846320905e-05 0)
(-0.0368601553588 0.000804479344738 0)
(-0.13252133502 0.00287978282802 0)
(-0.0916582972427 0.00172974996038 0)
(-0.033775795734 0.000637407447991 0)
(-0.116949883963 0.0025414041258 0)
(-0.0417671564086 0.000911575501842 0)
(-0.0297855429845 0.000562104504963 0)
(-0.0287068254168 0.000626531491147 0)
(-0.0625994767356 0.00136033113551 0)
(-0.0712739792002 0.00134506276471 0)