/*--------------------------------*- C++ -*----------------------------------*\
| =========                 |                                                 |
| \\      /  F ield         | OpenFOAM: The Open Source CFD Toolbox           |
|  \\    /   O peration     | Version:  v1906                                 |
|   \\  /    A nd           | Web:      www.OpenFOAM.com                      |
|    \\/     M anipulation  |                                                 |
\*---------------------------------------------------------------------------*/
FoamFile
{
    version     2.0;
    format      ascii;
    class       volScalarField;
    location    "5.65";
    object      p;
}
// * * * * * * * * * * * * * * * * * * * * * * * * * * * * * * * * * * * * * //

dimensions      [1 -1 -2 0 0 0 0];


internalField   nonuniform List<scalar> 
28582
(
17105.5312159
17103.1129948
12208.2076144
12205.4668476
7311.9904185
7307.80724249
3642.75746138
3638.02797347
16.5165666086
24.4447033169
-27.3368710948
3641.34399791
626.201322772
629.689288537
3633.32770116
3633.7198252
629.767082128
1794.34061449
1794.3812096
17106.9572911
17101.0404036
17099.6635464
12209.3823563
12202.7008561
12201.0704318
7312.71501237
7302.92536003
3640.97949064
3628.63484884
26.9774375283
-27.1670682278
-27.1217273329
3641.39225757
3642.17492229
622.925384116
626.258457832
1807.18984826
3625.24346277
3628.32885918
3624.57606207
1790.38331028
622.87484362
1790.03722391
1782.24452678
19.1306600765
24.5934518242
-23.1204296042
-23.1161361334
21.7758660245
-23.1473189752
1808.54116507
1809.28785211
627.723255387
625.424346932
1808.90094732
627.182606145
1808.75746791
1808.90681514
1806.9582293
629.045822668
629.769747954
1807.73047246
628.783169307
1808.25931848
1802.38467189
1804.87291746
629.310763868
630.100391672
1805.58919353
629.662058109
1801.95843019
1794.41712502
627.321599867
627.468970976
1798.52271472
628.371690848
628.556367423
1798.36826812
1794.54940147
627.746519977
628.288991247
1799.01501031
630.182775451
1799.91621412
629.053046499
15.9398001082
-23.2260506433
15.2486015947
16.5580744342
-23.2426009235
-23.225421804
27.3515141175
-23.0650526662
-23.0540368591
29.1179602206
-23.077221569
28.7947824052
-23.0570915852
1806.29466737
1805.25048838
624.024909508
622.707069261
1805.91815031
1805.51089513
623.882534963
1806.94738849
1806.94310608
625.065175
626.259619332
1806.45686563
1807.49902184
625.08365058
624.106032896
625.460762126
1807.95932319
1807.124704
625.983865875
1807.80204822
624.750530192
1790.63650823
625.966228576
626.030501285
1786.61717849
624.611112481
1786.9487528
624.59032388
1784.02797176
1783.54423042
623.392873038
622.815459695
1784.38036321
1783.11303227
623.42330902
1785.01153996
1789.57988655
625.991745762
625.842339857
623.861014998
1785.99418965
624.299474247
622.296027423
621.773978162
1781.65894052
1783.33080061
622.434835561
1782.49185736
623.017425878
7300.59282313
3624.22903507
29.8128379391
-27.2935384413
3642.06090741
626.851231454
3623.33147069
3624.37936403
623.450646311
622.923371807
630.360280553
3626.50651495
3628.5133105
632.841905265
638.878323812
17.618747592
30.1771378624
32.0702784642
-23.1297308689
-23.1507494227
-23.1708701768
33.7540161811
35.6590343089
1808.17340316
1808.39486858
627.200069664
628.122835571
1808.14763478
628.423053531
1808.47612757
1785.2043941
1784.07620147
625.365046325
623.330427318
1785.67171608
1783.59684308
625.29281475
1784.66070603
1782.37125816
623.098672989
625.205727677
1783.06350324
625.224871001
1783.64396016
1785.96803531
1787.21209312
630.213448069
627.82250768
1787.8445206
627.81134271
1785.21364733
1791.94497876
1789.33272098
632.640706451
635.310499186
1789.87997702
634.939651263
1791.56193467
1793.64579222
1794.53369124
638.502086662
637.641491774
1794.77917876
637.155102649
1793.36268351
3654.62890277
3646.35076454
3643.84572402
3642.02426364
9.46686630665
12.1896731993
13.3374637616
15.3412112687
14.1845236503
-27.0141279311
-27.2567296455
-27.0155417223
-27.2328523794
-27.0855624917
-27.2610299316
3660.04936341
3658.90977185
624.741366144
624.145339212
3658.67710951
623.862730965
3655.7040614
3651.59328816
623.447593949
620.31665216
3653.76868871
3650.01801339
3648.57144222
622.567014915
621.846687629
619.117702175
621.139887245
3647.09629926
3644.47057289
622.539580087
620.546104579
622.371991513
621.485154111
3644.90480067
3643.27414802
618.653389587
621.426793619
620.793618345
3642.21109584
3642.49523526
3641.41842551
622.378991581
621.752312087
621.222795299
621.347292607
620.716968077
620.659540178
6.66984268385
6.78741944855
7.99297936868
-23.2612277158
-23.2656365863
-23.2630651843
-23.2685260224
-23.2843339322
-23.2234951365
-23.2898360732
-23.2247267061
8.27902304161
10.9709484296
10.7306486725
11.5162397846
12.5890499531
-23.2382222314
-23.2509763313
-23.2200239039
-23.2533522831
12.7821139157
14.1284464125
14.3110286127
-23.2866862653
-23.2241346463
-23.2966705152
-23.2255243349
14.4685270474
14.7265935133
-23.2042827793
-23.2447969582
-23.2429375121
15.4304761684
15.0971227611
15.3242191886
-23.2844043429
-23.2407699129
-23.2815712176
-23.2499941375
1822.68118045
1822.62451072
624.114463882
624.663116909
1822.67137577
623.97172042
1822.62966103
1822.48956583
1820.97796004
624.507310587
623.958139663
1822.22603684
1821.77691946
623.996339433
1821.06736512
1819.9072767
624.760576743
623.253143877
1821.75711623
1818.85448553
624.600486811
1817.50528043
1818.73821796
623.892867263
622.451167443
1820.10441775
1815.71095522
623.351434431
1814.64838413
1809.69054862
621.332350054
622.02122291
1812.56264904
1811.91849583
622.650530634
1813.03358847
1817.25978205
621.87892862
621.178464508
1816.0094989
1814.06516905
620.620880172
1812.82568353
1814.97052298
621.522800018
621.294988018
1815.36190408
1812.63940529
620.751739891
1810.45187786
1808.50731584
619.881718819
619.17500294
1811.00311209
1808.46802407
619.619402614
1810.60397678
1808.58782765
621.230346809
619.93211549
1810.50853267
1808.7648822
620.22746781
1811.1282201
1814.35545316
622.621160961
622.08451895
1813.22491967
1812.09616106
622.468795459
1809.69492926
1808.03985777
622.173753745
620.82056933
1811.32969167
621.930285929
1807.33802348
1809.21244828
1808.30630492
622.238338511
622.524018377
1810.06545851
1807.5200197
622.648295093
1807.97902752
1805.25436865
621.265455823
622.11763657
1806.49973307
622.226352942
1806.23679115
1805.89499346
1806.93230097
619.015498813
618.681249355
1807.10299172
1806.05108556
619.027630129
1805.62518671
1807.01947192
620.236876828
621.353525166
1807.06666913
1805.75949751
620.270275295
1804.82774902
1804.5874587
621.177662017
620.050129855
1804.99570265
1804.44374093
620.313424544
1805.35089467
1806.82647917
622.506281933
622.190878403
1806.2307837
1805.72582341
622.311456245
1804.75348314
1804.54871028
622.224133029
621.839722914
1805.44599588
622.143557587
1804.0881446
1804.72616005
1804.56254148
621.719773683
621.28153387
1805.00762823
1804.32715285
621.840271109
1804.30303507
1803.71584758
621.721979498
621.324139535
1804.03084484
621.84413365
1803.84165194
1803.97880195
1804.30300823
620.779327834
619.941122233
1804.07918225
1804.20030273
620.087905045
1803.62445336
620.603576816
1803.84374438
17104.5312095
17102.5746193
17101.1174536
17098.9971318
17098.8065871
17101.1024965
12207.1570364
12204.99155
12202.9243241
12200.7394626
12201.0042303
12203.396109
18320.3907029
18323.6099281
17094.4299741
17097.9774612
17100.2884773
17101.8832942
17104.6039582
17100.4326291
18322.129475
18324.6448975
17100.2742238
17100.4181513
17100.928997
17101.3807614
17101.5211721
17101.2967724
17102.4635403
17100.9067962
17100.5793605
17100.5249998
17100.028659
17100.095316
17100.2041473
17101.0772829
17105.2355317
17102.9486312
17101.8981642
17101.1656142
17100.4919652
17100.1048168
17100.1323572
17101.713736
17100.0969672
17099.4871463
17099.3001615
17101.3998264
13420.3931369
13423.7135349
12200.2889211
12200.2022693
12200.7569457
12202.9929561
12206.8185273
12193.674759
13424.2640592
13426.303454
12204.6953705
12203.1206632
12201.9290297
12202.4622701
12203.3628461
12198.9046052
12204.0974356
12203.7991276
12203.4058968
12202.4272945
12201.0937333
12201.3894984
12201.5949332
12201.243226
12207.5203303
12205.7548672
12204.5952488
12203.1386625
12202.0251463
12201.7572702
12202.0704107
12203.4169296
12201.5671896
12201.2354356
12201.454407
12203.6782174
8520.56657711
8525.49357471
7305.3034419
7302.53993936
7300.39080244
7303.3683205
7308.44760294
7293.95352046
8525.05181547
8529.39248635
7304.09763421
7301.5846141
7300.36200517
7302.52881472
7304.47365058
7298.65676941
7307.01753171
7307.18361182
7306.1861978
7302.89154353
7300.77126476
7302.09092123
7302.58413019
7302.14823278
7312.43650058
7310.77201682
7309.28206023
7306.87836691
7303.46426084
7301.29330783
7302.34325443
7303.13976753
7304.31508209
7310.66859487
7307.31032369
7303.37145475
7301.3380229
7302.10324366
7302.66299012
7304.82831984
7301.33505845
7302.02010504
7304.64982568
3624.94574454
3631.92385826
3637.90429582
3632.75093593
3623.23456482
3626.90493464
3635.01212686
3639.41360256
3626.17046781
3627.95760734
3633.8632318
3636.24860709
3629.05344123
3623.14174964
3626.71065628
3633.26230844
3634.30965658
3639.96485382
3635.24655252
3633.4052591
3636.04022294
3637.21329573
3628.74216669
3622.7056258
3626.64317864
3632.31789738
3633.8270494
3638.84288819
3637.96939983
3638.86100347
3637.91952229
3629.71331547
3624.03512019
3627.6348231
3632.19166169
3634.56810403
3641.30323844
3637.73911932
3629.37431737
3624.73493974
3628.12943206
3631.80593665
3633.8639816
3627.2281884
3630.47083398
3632.45301489
17.0647246225
15.8655728135
17.1575091746
27.0730213381
33.2650983094
41.4128091688
45.5846151272
47.2060122001
13.0657027134
15.8503703662
17.0264188957
17.2663397749
22.2825993494
30.0934275421
35.0894912335
41.4367042522
46.1919975709
47.8508795427
15.0212786522
14.6207779353
15.9151996687
17.8565866618
22.4167593592
29.8528945741
35.0470795342
40.5497037044
44.3741822029
46.7412829765
14.7372556554
15.7841794672
17.913296169
21.8038761286
27.6794074828
31.8731062199
36.7696654549
40.5231731663
43.454068443
18.2133463506
21.8318214669
26.5716246686
29.9871585259
33.1210130266
36.5673835329
39.1698750238
32.8965688233
35.6493565951
36.7200721629
-27.1222101534
-27.1672003811
-27.1334362013
-27.0769182584
-27.1704881331
-27.3714813761
-27.6163089109
-27.1964409964
-27.3750193427
-27.8832421935
-27.1286891477
-27.1594997425
-27.1455207662
-27.133980197
-27.3199743447
-27.4989596657
-27.9182397504
-27.2285177458
-27.4106346596
-27.9559871282
-27.2375763614
-27.1187714192
-27.1344787754
-27.1107460131
-27.1555733718
-27.2087433342
-27.8359118397
-27.1696073718
-27.4028185056
-27.7994807255
-27.0756634784
-27.1051176926
-27.0498438985
-27.136236188
-27.1745951115
-27.7499768299
-27.1300598812
-27.3658708055
-27.7056690794
-27.2059117891
-27.3653036546
-27.5279310576
-27.6680918571
-27.1675244801
-27.3304338911
-27.7544729394
-27.1243591183
-27.2734765009
-27.7480110825
18322.337348
18320.5777079
18322.6878875
15870.7391911
15872.9913293
15871.4302011
15873.2809121
18324.1375676
18324.2282286
18324.8110118
15874.6040921
15870.6510776
15874.3962769
15873.1699829
18323.2753372
18324.3834155
18324.2035092
15873.0488877
15874.5495658
15875.0680003
15875.4949997
18324.9343069
18324.9699228
18325.3278505
15875.6404951
15875.3361189
15876.3797596
15877.1046398
13422.4412664
13421.8717341
13423.2915528
10970.0635852
10972.5328094
10971.6871749
10973.7766098
13424.0449765
13423.9221244
13425.244332
10974.0441271
10974.3650532
10975.0896275
10975.2898993
13425.529977
13425.9047252
13426.5483085
10974.5785923
10976.4146333
10976.6090832
10977.2584254
13426.2765916
13427.4512632
13430.5867546
10977.605095
10974.1042557
10977.8520155
10980.5758333
8523.43122025
8522.34883717
8524.92235585
6072.30732357
6075.45097352
6074.00655899
6076.71297041
8526.49673075
8526.96839615
8528.24005275
6078.20975839
6080.24922986
6079.15358536
6082.07046863
8527.48410336
8527.3898448
8528.4622209
6076.25358719
6078.96499508
6078.52602931
6080.2873279
8526.67525868
8529.43158709
8531.46560469
6081.11959011
6081.48398084
6081.81561781
6083.8489476
3621.77768067
3623.75580984
613.658626126
615.632602708
3628.14566011
3626.52480986
3629.47737458
615.639933414
618.451787695
617.16913749
620.048262014
3635.84266916
3632.62453517
3635.73760185
619.205520836
623.307863987
620.848292528
625.741987002
3636.95465815
3636.84950524
3634.99542829
625.566101913
634.903275986
628.677943382
635.467864904
3626.64524315
3630.75879601
3625.43032039
635.332307808
623.626461765
634.179697125
623.872565895
3623.18719561
3622.76000733
3622.91513347
621.262874332
633.413166573
622.54274122
633.644702267
3631.53770117
3626.49326374
3630.8398259
638.21005053
650.119829705
638.369811945
650.661982086
3637.7261437
3634.06904422
3636.46843344
651.484522744
655.014352128
652.316531878
655.198927261
3626.01249344
3636.42996327
3626.7259226
655.637362171
618.770344983
655.289429777
620.331941698
3639.88939763
3634.80930306
617.867604244
615.381909013
620.585238333
618.93875387
3625.96512419
3631.42136582
3630.03916257
615.262128382
616.442110729
618.478935728
618.402849883
3630.90312011
3630.52727913
3632.48302843
617.468743653
620.309269691
618.89703119
621.19304829
3636.0500955
3634.96456646
3636.9792966
621.239876055
626.718566439
622.453832757
628.580368457
3633.49167388
3636.88164107
3634.06025022
629.738884666
634.684317654
631.24277209
633.346260577
3624.81410496
3629.02814853
3624.52515982
633.161538286
624.42897007
631.218796752
625.097217957
3623.50083502
3623.09754976
3623.52313674
623.535945343
634.005661459
624.783236161
634.410434493
3630.42011873
3626.75709618
3630.09818976
638.436598585
650.370826793
638.49617689
649.142415777
3635.52975465
3632.69544477
3634.74764174
652.13093986
654.903569836
650.741321506
653.633457462
3628.42202646
3633.58012957
3630.7826006
654.771075553
620.527726621
653.511557235
621.165498778
3637.46764967
3640.14434049
3638.71311556
621.084643017
619.729878052
621.321628353
620.854278812
3633.82843904
3637.32212049
3636.36678185
619.082999456
618.949282459
620.517897371
620.580421378
3634.34670118
3635.88727361
3636.32625063
619.400690017
621.665798007
621.085522773
623.288829153
3637.51362551
3637.31352756
3638.38212552
622.884783208
628.749821388
624.338033621
629.126699056
3633.8697772
3637.81491483
3634.65910724
631.587110367
633.390340124
631.412497709
632.614314942
3624.25817813
3629.60849473
3624.9359274
630.935348342
624.585982207
629.64847655
622.649996908
3623.50704805
3623.33827607
3624.23633894
624.550428464
634.370987631
623.868811793
633.611960623
3629.84135271
3627.09273306
3630.05831688
638.251256146
648.666923962
636.983566714
646.098671353
3634.14209545
3632.25280592
3634.15162467
650.054688761
653.097792043
647.330067797
650.935310684
3632.53477033
3634.33782135
3633.74660597
653.378697837
621.363635548
651.485671004
622.430079965
620.79918588
620.651359904
3638.23587528
3639.70281762
620.573791271
621.11660012
621.8797405
3638.23903648
3639.84472106
3640.20525337
621.587817579
623.943705483
622.684485573
625.764345804
3639.19784365
3640.31106965
3639.74864901
625.04722596
629.499802562
626.887447774
629.720935637
3634.5556432
3637.73894837
3634.1355412
631.424220198
631.567719751
630.787623394
628.967369199
3625.46573222
3629.57571274
3625.84680751
628.798007901
622.559374165
626.838841073
622.611016958
3625.12262854
3624.64299816
3625.74661547
623.976212435
633.177502241
623.98008603
631.556884582
3630.27410706
3628.10997216
3630.5174569
636.275860218
644.846022671
634.03868112
640.964258245
3634.09899055
3632.17033541
3633.93990456
646.13050156
649.902538033
642.313762357
645.48640178
3634.69241584
3634.28023809
3635.22075326
650.530283588
622.408395604
646.407391631
621.121601469
3640.27469102
3640.7232552
627.360820939
629.974317125
629.745734537
3633.86912438
3637.68391032
3633.40719566
630.944535932
628.539739633
629.826168969
627.397968384
3625.88489242
3628.99670203
3625.68667471
626.480053313
622.57552218
625.924301777
622.708892846
3625.90648318
3624.67948491
3625.69115774
623.874064333
631.175119349
623.37284332
630.409300565
3630.30277959
3627.83690135
3629.88180699
633.486442772
639.904400688
632.503480354
638.126891283
3633.23063437
3631.14996237
3632.58852379
641.281247715
644.146713813
639.262808933
640.934028506
3635.65774575
3633.15408585
3635.82517922
645.081796867
620.407210555
641.607307259
619.603962336
3625.02199773
630.158344722
3629.21069477
632.329496733
638.136192516
3631.72255128
639.027949883
640.422748961
3635.42929487
640.9067345
618.380942052
-23.182833898
-23.1850603079
-23.1769929697
-23.1725104058
16.1487933958
16.5894791626
-23.1730597932
-23.1965191858
-23.1611708209
-23.1885573206
16.8072902871
17.4873984876
17.181829961
-23.223092282
-23.2749520739
-23.2222039308
-23.2560932051
15.4060168508
16.6771405352
17.0786829148
-23.2534795424
-23.1983933115
-23.2447270458
-23.2100625409
21.6286581347
19.3723695983
24.201562751
-23.1688395675
-23.1166397261
-23.166124805
-23.1304153816
30.8431452094
28.6474186215
31.802205868
-23.0567358444
-23.0448977307
-23.0723725699
-23.0607726861
37.8113864937
34.1937412863
38.0715692574
-23.0620458979
-23.1087712012
-23.0836406755
-23.1409971146
45.3118580767
41.5934713898
45.7312584015
-23.0651627836
-23.1435020235
-23.1006150423
-23.1622973715
46.2791505491
46.2755154759
46.9852680092
-23.1623969016
-23.1519959012
-23.1780471002
-23.1618547697
48.4825061537
47.8244315188
49.0189165022
-23.2079214819
-23.1686631251
-23.225186174
-23.1865197078
14.0422200491
13.9486389439
14.3974829068
-23.1918619224
-23.1958561168
-23.2035157271
-23.2086270104
16.450739177
15.0895669029
15.6405502173
-23.1775580796
-23.1891603109
-23.179672938
-23.1859815121
17.1174824383
16.2123951698
16.7939454534
-23.2112135716
-23.2242935724
-23.1966363089
-23.1991458592
18.5625426244
17.6719298443
19.5063141658
-23.2126162654
-23.1972490204
-23.1849932517
-23.1692327277
26.7784432583
22.8159778807
27.1095816761
-23.1668695142
-23.1323094769
-23.1449109903
-23.1064137735
32.7984654027
30.6130113871
33.4665514648
-23.090407974
-23.0870789922
-23.0959514708
-23.1074296921
38.1988156878
35.5242485853
38.3061037405
-23.1823643559
-23.2233249099
-23.1994900917
-23.2478177454
45.4302805458
41.1788332592
44.7426368447
-23.1381177801
-23.1830050254
-23.1624407403
-23.2026761726
47.0658686074
45.5424623017
46.6284085682
-23.1948945137
-23.1713128249
-23.2116825963
-23.1804639288
49.2009478472
47.4942191928
48.9214061628
-23.2423287523
-23.1940339855
-23.2488307938
-23.198737476
14.887624383
15.332993702
15.2347126739
-23.2237606831
-23.2192262378
-23.2276350132
-23.2013018108
15.0778379427
14.8613733099
15.1593229679
-23.1612643087
-23.1667987687
-23.1419979592
-23.163079526
16.7520478493
15.9529650602
16.8040708587
-23.1786821629
-23.1845294529
-23.1818411314
-23.1903392109
19.5690037825
17.8398624738
19.1664036318
-23.1797565787
-23.16688482
-23.1920512737
-23.1866903729
26.5559613842
21.7067906528
25.5182506636
-23.1148552138
-23.062755712
-23.1073361427
-23.0589480066
32.757055741
28.7259108787
31.3201211298
-23.0139486167
-23.0289929199
-23.0098087562
-23.0242619366
38.0400065756
33.5692492495
36.6103997326
-23.1524566916
-23.2170934338
-23.1503014236
-23.2178246736
43.8815034629
39.0054116187
42.0355724561
-23.1648886035
-23.2093495408
-23.1613047841
-23.2201655952
45.5338171826
42.667042173
43.7519860069
-23.2237372262
-23.1839299092
-23.236284466
-23.1864249687
48.1990833444
45.3617768107
47.0903305647
-23.238234556
-23.2111594143
-23.2343167205
-23.207325967
15.1544094049
14.6905053421
-23.1269088263
-23.1761311399
-23.2128118908
16.7134179287
15.4294616273
16.7108916378
-23.2006763854
-23.199508218
-23.2208208937
-23.2129113399
19.505145673
18.4008994571
20.0950547086
-23.1834090999
-23.1599717719
-23.1842794378
-23.150668927
24.7079402884
21.9706628714
24.0980218671
-23.1036795245
-23.0619856302
-23.108907066
-23.0649015002
29.8308046231
26.819081038
28.8724585302
-23.0284655277
-23.0428575919
-23.0418141812
-23.0560369524
34.5810606993
30.6656840656
32.7411013572
-23.1466876569
-23.2162638135
-23.1475879187
-23.2196196967
39.5833873565
34.5270183767
37.052489647
-23.1642120218
-23.2253410209
-23.165551105
-23.2111984786
41.5455790643
38.1750280565
39.2889780865
-23.2428518569
-23.1900880175
-23.2354514961
-23.1863245472
45.4447754994
41.3196310403
43.6580454036
-23.2303137654
-23.1956126893
-23.2305781315
-23.1872811762
19.9426574114
19.7619709169
-23.2005579133
-23.1715161889
-23.2018515491
-23.1754239284
23.8978721226
21.9411726401
24.2228232238
-23.1470119268
-23.0899904366
-23.1414916305
-23.1049385574
28.5343775078
26.7543241529
28.6182576998
-23.0952367196
-23.1090195097
-23.1023382473
-23.1223364616
31.72760652
29.7674697659
31.4627206046
-23.153301256
-23.2103412148
-23.18301413
-23.225057831
35.3353064117
32.6585410087
34.6882341808
-23.1646873239
-23.207805353
-23.1571289032
-23.1994600458
37.6236901283
35.7361301083
36.6917510666
-23.2284455705
-23.1916689868
-23.2160202128
-23.1893058227
41.6519958032
37.3637486554
40.0016986882
-23.2458359824
-23.1714149613
-23.2417994808
-23.156409032
31.4532749578
-23.1664004632
34.864061546
-23.1324229341
-23.1708897333
-23.1290569606
-23.1622061646
36.317136302
-23.1937882615
-23.1856974131
-23.1796806862
-23.1741959837
39.1860975798
-23.2354703405
-23.1430614463
-23.2315820178
-23.1487820508
1784.90803018
1785.91500383
611.630667373
614.287399686
1786.35713579
612.668662411
1784.21105724
1785.8446728
1788.44203651
614.948932772
614.367629739
1787.21470896
1787.24868521
613.488528885
1790.44871087
1787.97036049
616.960926995
616.057210264
1788.29932586
617.50955437
1790.04650045
1792.3948086
1793.86748702
617.924515915
618.89436813
1794.23959339
618.558219259
1791.96324386
1791.27925928
1790.24897322
616.640715957
618.46262917
1789.13793918
1792.22307545
618.057934411
1793.14995415
1795.62835536
619.412351117
619.420143579
1794.88334869
1793.98841016
619.0114928
1798.63069713
1796.09557761
620.274041551
619.676528417
1796.31499382
620.728608793
1798.56022758
1800.93553992
1803.23060871
621.450967188
623.919761988
1803.37856834
621.937466298
1800.8800716
1798.81465123
1797.37171712
620.35043037
621.848163446
1796.71629817
1799.24345193
621.302418246
1800.9958751
1803.37690343
624.698795832
623.390149877
1803.31871987
1801.27595318
622.590575053
1807.01180816
1805.27585258
628.703810352
626.416079807
1805.38604884
629.674391123
1807.04220376
1807.25200162
1806.10929677
632.371026164
635.54337825
1805.27885802
633.259205932
1807.62952035
1806.70102873
1805.11961826
627.48007306
631.855064273
1805.3115356
1805.9304258
630.836715811
1806.41480864
1802.04697492
635.711137437
634.70547314
1803.84447535
1805.07781952
634.265646325
1793.43961321
1801.51970093
632.685616593
635.529891336
1800.37195288
632.541786664
1794.63328608
1785.90739957
1780.59658351
627.602492124
623.505215217
1779.7532893
627.413376211
1786.97168344
1791.87162701
1796.84385801
634.805486132
631.14556592
1798.74230088
1790.27417352
631.79846805
1784.8398986
1778.77287294
623.526143923
626.789132535
1779.11112993
1783.95762418
627.051917818
1779.57122313
1778.83060062
623.242658899
621.385436833
1778.19389275
623.370472826
1779.9965654
1781.40859262
1784.96986797
628.308238371
633.508085776
1784.48278502
628.38128907
1781.83864362
1779.47468921
1777.62973947
621.83972926
624.535059017
1777.75843716
1779.3691265
623.856381797
1781.68707673
1784.53118467
633.497362717
628.813772055
1784.41009117
1781.75000163
628.429891212
1792.18697438
1788.54159025
642.642228297
638.356155977
1788.13158136
642.900933196
1792.5549577
1795.9383017
1799.1886153
647.239861582
650.613922104
1798.93964966
647.649255417
1796.24633285
1791.9792943
1788.01886283
638.339349211
642.908188559
1788.01595222
1791.83518858
642.907590515
1795.73053111
1798.41890426
650.748639822
647.642537737
1798.72759934
1795.46207719
647.732430563
1802.08820318
1801.07598602
652.620756049
652.075263947
1800.86692388
653.262626913
1802.37456344
1802.42451906
1801.99699564
653.85308501
655.530129788
1801.61657086
654.56317339
1802.72897726
1801.74926817
1800.33581116
652.314529736
653.651972397
1800.68271504
1801.24532908
653.583773406
1801.94314269
1800.30989377
655.403158734
655.00967139
1801.1347263
1801.24766473
654.905429379
1794.22158092
1799.76378881
656.888903753
655.988697497
1799.34764022
657.030494525
1795.02785728
1786.80326609
1785.47789538
658.644983944
619.308161791
658.774466365
1785.46068186
1787.66357603
1792.91136616
1797.32746486
655.704086941
655.554495043
1798.48862098
1791.52441453
656.168738382
1785.15064474
1785.64158139
619.815522613
656.326592545
1783.48427353
657.062492748
1785.51046424
1800.66806885
1803.6879448
616.304917025
619.246991618
1799.56880015
617.802465659
1804.11230628
1797.4404278
1792.78613943
615.940839865
616.698621933
1795.87200664
1795.07832778
616.825134646
1801.43181145
1803.71514935
620.124062977
619.80383058
1802.08627356
618.988190697
1803.96683449
1798.99586142
1798.82344421
617.803190205
619.474026917
1797.10235828
1800.43313637
618.134814532
1791.79208033
1790.53090656
615.444468877
616.936863124
1789.28703736
1793.17509234
616.679878272
1791.37242782
1789.95634811
615.648556203
617.138606423
1789.13279488
1791.81153376
616.673721071
1794.15225889
1797.38741557
617.826670129
618.197479948
1795.47135078
1796.35858055
617.480039137
1793.58999046
1795.44002287
617.807109877
618.184176123
1793.67175815
1795.68557991
617.488727673
1794.05230332
1791.353799
618.583379426
617.965250335
1793.01519189
1792.78241823
618.826629878
1795.43895242
1796.28145241
619.458103907
620.578158468
1794.6591945
1796.97433138
619.575515734
1795.15868963
1795.70923192
618.377559324
619.432495669
1794.22324624
1796.383656
619.086108217
1796.33373535
1798.53730857
620.824854338
620.139197535
1797.7159609
1797.35484863
619.772189858
1800.35237313
1797.98156344
622.471304821
621.711180382
1799.76509099
1798.63751327
623.132077571
1802.00816398
1803.40593053
624.329657138
627.582422667
1801.63528382
1803.68653151
625.179905012
1800.92741578
1799.9107062
622.082570712
624.097368466
1799.26823013
1801.45257247
623.667140925
1802.57934962
1804.40556439
628.214411152
626.176775531
1804.02209289
1803.06020573
625.78614581
1804.15716388
1804.66527701
632.439117255
630.461919062
1804.82870583
1804.5978359
632.770753003
1802.0500643
1799.81696402
634.54476161
634.01243717
1803.2141622
1798.30946973
634.292668096
1804.10860658
1805.0393418
630.913102585
633.102794084
1804.76890672
1804.40474077
632.941966677
1801.66301749
1797.45864956
633.520760065
634.218114307
1797.60260184
1801.80437518
634.11066606
1787.88334118
1794.98022403
630.631320194
632.247163252
1788.89564084
1793.46004451
629.971669886
1782.79490979
1778.71587659
626.905795619
625.099048401
1783.23274699
1778.80440293
627.009899141
1787.16670727
1792.1645579
631.684881649
628.966262717
1792.60285015
1786.56679833
629.52322596
1782.38153332
1778.74604254
625.30721251
626.453142748
1778.80198802
1781.91042545
626.967954135
1779.71463022
1777.73030734
625.647536809
624.400909158
1779.41349503
1778.04415679
626.394480623
1782.16825209
1784.79897968
629.533946629
634.230115577
1781.90938486
1785.04831277
630.013822555
1780.16132088
1778.66287708
624.831876176
627.012964167
1778.41230021
1780.50801685
626.920642638
1782.54914362
1785.16696977
634.402831031
630.504127137
1785.10984065
1782.75676
630.387514269
1791.70217786
1788.13632691
642.770413411
638.52885358
1791.75008286
1788.25414343
642.687757076
1795.0424062
1798.11776995
647.351369676
650.00359846
1795.2218043
1797.86069356
647.101909958
1791.73673582
1788.38176906
638.558175727
642.404926956
1788.32769534
1791.79760535
642.596154888
1794.97149263
1797.58115456
649.604699202
646.487949023
1797.68413793
1794.95900638
646.810469967
1800.29884368
1800.02262143
653.507825157
651.722280331
1800.78415544
1799.67582087
653.130407188
1799.84957014
1799.57479155
654.845703309
654.474754466
1800.56735841
1798.87278838
654.316523595
1799.98502051
1799.29163336
651.259686471
652.082389198
1799.44508086
1799.77988956
652.626461167
1799.40656546
1798.23455655
654.013262895
653.378868268
1798.5009238
1799.21119735
653.813755679
1790.38103767
1796.45758969
654.943716839
654.277994059
1790.82719544
1795.81281908
654.386403526
1780.19644514
1785.85098927
655.661510593
620.980980512
1781.70573113
654.701272787
1786.40995703
1790.14637763
1795.41164485
653.805619546
653.686313447
1795.56903311
1790.09356233
653.978302609
1780.00009577
1787.82848555
621.109875386
654.124446716
1780.12407073
654.595738081
1787.20038843
1802.66741925
1803.50234389
620.534808233
621.316908473
1802.43831417
621.081160346
1803.31040586
1802.03439933
1800.21210797
620.239802175
620.391605074
1801.35648316
1801.24926093
620.905574288
1802.88155235
1803.3208892
621.466213754
621.196649269
1803.03187578
621.358851941
1803.29495501
1802.48317735
1802.31259163
620.830687823
621.081881788
1801.89299897
1802.75238936
621.291127659
1799.55585113
1799.0674702
618.824116422
619.750453587
1798.18067285
1800.32133463
619.422168953
1798.96850552
1797.09262422
618.771208303
619.52407777
1797.49314155
1798.53963831
619.448403648
1800.54344597
1801.80576913
620.195561797
620.326708725
1801.151761
1801.38874728
619.91309722
1800.07557559
1800.74994968
620.066612984
620.349401086
1799.73931036
1801.0238784
619.865275815
1798.7204577
1797.13532878
619.919727214
619.799406979
1797.585678
1798.3892032
620.503205751
1799.41888379
1799.37783466
620.630992387
622.188497155
1798.35116011
1800.31073264
621.265288459
1799.8828349
1800.76207725
620.419922891
621.652372728
1799.61028216
1801.06361754
621.087044572
1800.47277421
1802.21948215
622.707524479
622.39092383
1801.21851863
1801.56819079
621.827990301
1802.5983748
1800.59284474
624.457743261
623.342742932
1802.02761613
1801.34560527
624.785468278
1803.96786772
1804.9023779
626.439451868
628.804311624
1803.56433525
1805.25828454
626.560524285
1803.23468284
1803.02840033
623.863760897