/*--------------------------------*- C++ -*----------------------------------*\
| =========                 |                                                 |
| \\      /  F ield         | OpenFOAM: The Open Source CFD Toolbox           |
|  \\    /   O peration     | Version:  v1906                                 |
|   \\  /    A nd           | Web:      www.OpenFOAM.com                      |
|    \\/     M anipulation  |                                                 |
\*---------------------------------------------------------------------------*/
FoamFile
{
    version     2.0;
    format      ascii;
    class       surfaceScalarField;
    location    "5.65";
    object      phi;
}
// * * * * * * * * * * * * * * * * * * * * * * * * * * * * * * * * * * * * * //

dimensions      [0 3 -1 0 0 0 0];
oriented        oriented;


internalField   nonuniform List<scalar> 
92311
(
0.202815845643
-0.000267585102901
-0.000240964051868
-0.20249807601
0.000190779894268
-0.00034090773461
0.203032162766
0.000377902181427
-0.000253196649963
0.202759107092
-0.000579788626654
-0.000230034295298
-0.202402988321
0.000186260765789
-0.00081470494772
0.203147435001
0.000375226013019
-0.000289590571271
0.202615726625
-0.000245645993763
-0.00031086082422
-9.6565881704e-05
-0.202143937914
0.000103015767322
-0.000221141466372
-0.000280318563124
-0.000365197210919
-0.000455192795615
-0.000464804208939
0.203391062098
0.000398391772079
-0.000345757480876
-0.000357498999208
0.0505002868594
-7.20382646597e-05
-7.9225595769e-05
-7.04156101939e-05
-8.13971130194e-05
-6.52611119605e-05
-0.0504716923938
9.4094848342e-05
-0.0506141925603
0.0507921905166
-0.000151983209483
-0.000125054813845
-0.000127684450261
-0.000145592858071
9.04119113219e-05
-8.32819519295e-05
4.32755988339e-05
0.0163069244874
6.19751392308e-05
3.59912372574e-05
5.81937012304e-05
-0.00481705289088
-0.0227858194285
0.00779692647428
0.00329985340378
-0.00448677935984
0.00434460436463
0.00382710283134
-0.000959433933668
0.000170172778583
0.000177641065031
0.000173772187873
0.000177841732919
-0.00342488601278
-0.00425201139796
-0.00757553157778
-0.00722515635083
-0.00914761344988
-0.000822175614137
-0.00472152153531
0.00192569601801
-0.00921147235161
-0.00010385561049
-0.000118921144236
-0.000122398185242
-0.000103800130498
2.11970805287e-05
3.01197796879e-06
7.3643320382e-05
0.0123788998925
2.43490789562e-05
-2.6998619559e-05
-0.0124066459848
0.0122938585603
-0.000120379744126
0.000142220609024
-0.0123211730894
2.69788418029e-05
-2.16036964514e-05
-0.00016470427446
-0.000159023594977
0.0509455802752
-0.000150816474946
-0.000147306178962
-0.000141214486276
0.000154517411374
-0.000173362764116
0.0508978238115
-0.000181208590596
-0.000160928121231
-0.000159909181493
-0.0507119683821
-0.00013993292311
-0.000147748192454
0.000146216589565
0.0122915946527
1.64524451064e-05
-1.25986844612e-05
-6.24092312127e-05
0.0127509124282
5.08723413291e-05
-0.000176798265938
-0.0127215818566
0.0127497273522
-6.28967864098e-05
-0.000206714993736
-0.012715800595
-0.000184055799429
0.202968802699
-0.000957381705103
0.00081574718253
-0.202643112169
0.203087086401
-0.000298898699293
0.000882483856694
-0.000638059347911
-0.000109464614463
0.202902543415
0.00115627937156
-0.000861897813571
-0.00027379764873
0.202901620328
-0.00100043748098
0.000801430183233
-0.202612765827
0.203259432361
-0.000627533636003
0.000853013553395
-0.000636120573314
-0.000209846914534
0.203030331289
0.0011563355723
-0.000826618858935
-9.32697328655e-05
-0.000108655708126
-9.63062767489e-05
-0.000792472541074
0.202624190726
0.00068008516222
-0.202404060073
-8.3248781006e-05
-0.000378807648277
-0.000286898761847
-0.000379474830197
-0.000254863089769
0.203814756206
0.00101116269459
-0.000762567448455
0.0505499410307
-3.17809350596e-05
-1.84284199908e-05
-2.36743548782e-05
-2.52330899461e-05
-0.00018121332318
-0.0505445460301
0.00018168106669
0.0510860456104
-0.000171449862341
-0.00013534695543
-0.000127878899469
-0.000125032805273
-0.000118365349038
0.000158831100389
0.00552613356028
0.00263892243592
-0.00735145611048
0.000161650225206
0.000171728236194
0.000143717484728
0.000149867908366
-0.00592704087407
-0.0105518806712
-0.00826024741228
-0.00959529890442
0.000994035083558
0.0233867962698
-0.0095639426774
-0.00591527010714
-0.00967573280349
0.00607608738262
0.00540837875195
0.00749579058474
0.00659678136252
0.019829088719
-9.60910870945e-05
0.0536821744493
9.57497989618e-05
-5.03622295417e-05
-5.05532082586e-05
-4.32942641542e-05
-5.56766018431e-05
0.0506082865804
-6.285879971e-05
-3.89396822572e-05
-4.38946774998e-05
-4.03624602652e-05
-4.52851198063e-05
0.050539724514
0.000119986367112
-0.0504917793527
1.30944239721e-05
1.62569691022e-05
0.0124815378435
9.23147181325e-05
-0.000114760924017
-0.0124884268477
-2.78237900653e-05
6.84660182442e-05
-0.0124558093637
6.03572854288e-05
-7.53486288769e-05
0.0124301226234
-3.66083820626e-05
0.012600044762
-2.9799464479e-05
3.29212337909e-05
-0.0126054968355
-0.000201772693998
-8.92118162904e-05
-6.1741090537e-05
-8.35914295809e-05
-6.49538090353e-05
0.0510832831032
0.000217191530313
0.0510630469065
-0.000145498425354
-0.000138768973307
-0.000153694486782
-0.000131429651821
-0.000146770849445
-9.58154356537e-05
-6.18572163213e-05
-8.78186642443e-05
-5.73895015161e-05
0.0510736780403
-0.000164798095497
-6.20529969768e-05
5.1677211184e-05
-0.00015739467865
0.0127833892056
-6.86478679195e-05
4.62273354257e-05
-0.0123202207712
-8.53488466725e-06
0.0123330450343
1.80323935329e-05
-6.00604159473e-05
-0.000183404040816
0.0127857404403
-0.0128058448738
-0.000112536762745
0.0128166600604
4.58409581138e-05
-3.98881700754e-05
0.00828976845354
9.93082530907e-05
0.000115766014993
8.89922097382e-05
-0.00266645393248
0.00326514891276
0.00699519606887
0.00414995067707
0.000194415290376
0.000229484905253
0.000229730120155
0.000197590742819
-0.00510823884735
0.00510094248363
-0.000648795753458
-0.00396739471361
-0.00534378920705
0.000380988404142
0.0055080968975
-0.000871277271297
-0.00588610525574
-0.00060686788254
0.00526935718605
0.000160033257105
0.00014608192671
0.000171400029237
-0.00199032072581
0.00342748041588
-0.000450142558912
-0.00723711316708
0.00294416382512
2.45419813506e-05
0.012591747358
-1.94662019096e-05
-0.012595131923
-0.012581387649
-9.5678230535e-05
-8.66933092408e-06
0.0125918259369
1.46856294928e-05
2.70080869099e-05
9.96664244137e-05
0.0123400889069
-2.58555560962e-05
7.01876994569e-05
0.0123734367936
-0.0124067432844
2.34200170769e-05
-0.0125867260631
2.97648105763e-05
0.0123355137542
2.73970752862e-05
0.0126048860761
-3.45381778275e-06
0.0125965947694
-0.000116198780247
4.92755094445e-06
2.74755273054e-06
-1.72548970207e-05
-0.0126118111934
0.0126329113277
1.95541324675e-05
2.64179418388e-05
0.000115930527299
-2.40084129629e-05
0.000148924075007
-0.0123109076437
0.0122781384827
2.65743097747e-05
0.0126212124959
-1.52247446895e-05
2.3838816629e-05
1.03299177598e-05
-0.0126502284936
-0.000181842340973
4.00935535331e-05
0.0126858227298
-4.58240558939e-05
-3.26583435275e-05
0.0126584179367
2.84142479575e-05
8.77205029214e-06
0.000170713143421
0.0122782127789
-6.13343790367e-06
0.000154327285005
0.0122756217374
1.08162680747e-05
-3.47328350873e-05
0.012265611454
8.36681905209e-06
0.0126916350055
3.21669672284e-05
-0.000166777913211
-0.0127252035972
0.0127533012892
3.88304181844e-05
-5.90000076759e-06
-0.0122850998652
0.012286924092
7.54572131412e-06
-0.0122744251013
-8.93767295875e-06
0.0122783083365
-0.00017301703134
4.62266365932e-05
-5.6053769019e-05
1.83579755441e-06
0.000162792553129
2.33764650749e-06
-1.98894159197e-06
3.42606409236e-05
-0.000225106163804
-0.0127120327455
0.0127504855431
-5.73708813757e-05
-2.52318602984e-05
-0.0122689822986
0.0122730130825
-0.0122622898835
0.012271663363
-3.01134462819e-05
-5.70186309211e-05
-0.000202338992617
-0.0126733150964
0.000218542167519
1.86571889981e-05
-0.0122457767922
-2.38764077443e-05
-0.0126597251315
-5.03704737702e-05
-0.0122568617111
0.00669708564916
-0.00896904951794
1.21198045709e-05
2.85049000719e-05
1.62161372436e-05
6.83307513832e-06
0.0235262361003
-0.0275735364097
0.00625548121101
-0.00523978546809
0.00930473964348
0.00220934112827
-0.0101339100007
0.0256281742376
0.00465424729374
-3.39323835413e-06
-3.62101766183e-07
4.93890300735e-06
-0.0121754329683
0.0101265093039
-0.0282217648858
0.00536137121365
1.7894960124e-05
2.45304048044e-05
1.78754773154e-05
0.0214871167333
-0.0102778208994
0.00766440856467
-0.00732155860186
-0.00962574879
0.00567352299236
-0.0066373026901
0.0048206144435
0.00258482682846
-0.00796818807622
0.000185458509257
0.000202645056103
0.000175041851333
0.000156635950996
0.00508197215114
-0.00494904941322
-0.00342720083631
0.0116997213865
-0.00399158045855
0.00120125060108
0.00246582531613
-0.0053264771401
0.000114626279303
5.84055378155e-05
5.79423454904e-05
0.000106687791403
-0.00976487518753
0.00431920217025
-0.00563004875743
-0.000470069541223
0.0126415448636
0.00265306331967
0.000106949038016
6.65456968152e-05
0.000109734241477
-0.00921640777537
-0.00646589185473
-0.000601595822392
0.00022845387555
-3.17268276713e-05
-0.0126179131497
-3.5258093661e-05
0.0126177319858
3.5388655603e-05
0.0126261249807
3.95058266414e-05
-3.73966788915e-05
-0.0126304094503
2.80652786173e-05
8.38670227513e-05
0.0124701596473
-0.000103934111473
2.39443662263e-05
0.0124702147982
-0.0124761479549
7.39395546348e-05
0.0126250176936
-2.62853388157e-05
-0.0126210987469
4.13210572935e-05
0.0124589109747
6.49229355639e-05
-2.42495179668e-05
0.0126169332546
-5.51822171567e-05
2.98321143827e-05
-0.0126253254092
1.29652359154e-05
-3.33121765465e-06
0.012633593071
5.18377443672e-05
6.96404381995e-05
-8.9277889283e-05
6.88024289953e-05
-0.0124404699477
4.13713981119e-05
0.0124152395871
-1.60016838252e-05
1.8039647663e-05
0.0126249032034
5.06462097413e-05
0.012423878618
-3.45317584899e-05
2.63921657884e-05
-0.0124402938751
5.38869862945e-05
-2.98208397624e-05
0.0124015680909
2.65699039546e-05
-1.88182537919e-05
0.0126049348092
2.38086172736e-05
0.0126095429523
-3.71116350577e-05
-0.0126128336154
5.17671275681e-05
-0.0124324040952
0.0124084460483
0.0126151298146
-0.0124467598253
-0.000147340328133
0.012784428789
4.00353169392e-05
-7.96782720518e-06
0.0122988234847
1.0442242413e-05
0.0122928110741
-8.12793898335e-06
5.26251168894e-05
-0.000131824377534
0.0127968265416
-5.92445292548e-05
0.000124911139373
-8.91715231643e-06
0.0123130011654
1.35775822108e-05
0.0127985906181
4.50187356854e-05
0.0123084014246
-6.35376985328e-06
5.31061499943e-05
0.0128083662623
-9.86056681049e-05
-5.53144810285e-05
-0.0128100385583
-5.07539841533e-05
0.0127936763386
5.16523423992e-05
9.31096072217e-05
-8.61872808512e-06
1.52454936498e-05
4.75988850834e-05
-0.0123151477006
-2.01150925828e-06
0.0123276800861
5.12391250381e-05
-5.1733997084e-05
0.0127921369979
-4.32614562731e-06
-0.0127901525445
-0.000158073306922
5.25889433971e-05
-4.8869188016e-05
-0.000197693667648
-5.5558426285e-05
-2.09710162548e-05
0.0122879497439
0.0122853585336
-2.96070883033e-05
1.91966601229e-05
0.0123066483971
-2.35478818434e-05
-0.00015248731122
0.0128003170165
0.012305159966
0.0123117631149
1.34294521521e-05
-1.64716351883e-05
4.91853156363e-05
6.67839218749e-06
0.012323081438
-9.27935628889e-06
4.15346523047e-05
0.0127965125279
-3.42220654248e-05
0.0128125177593
-0.00010928330074
4.98912240966e-05
-0.0123115897591
0.0123242453787
0.0127947663413
-0.000124056091878
-6.77817687284e-05
3.58660508228e-05
0.00124421496761
0.203366437751
-3.94682989465e-05
-0.000810552649326
-0.000195572115657
-1.84634068101e-05
-4.57858323093e-05
-1.65980364465e-05
-4.85616795641e-05
0.000228526096073
0.0510555823982
1.40558510933e-05
0.00445743956198
0.00274649097846
-1.28853279411e-05
9.30004465227e-06
-1.55823773796e-05
-0.0058496943337
-0.0105655485539
0.00630047388216
0.00736149873567
0.0118477888543
0.0424139145757
0.0145497306916
0.00985178458046
0.0686523526855
-6.62330378918e-05
-6.66262630125e-05
-6.46387736236e-05
-7.02810957967e-05
0.000203788557067
-3.77359098699e-05
0.0505762235496
-5.11645406492e-05
7.24149672031e-05
-2.33785944146e-05
0.0123767773362
0.0510354537397
2.35336734042e-06
-4.35837942021e-05
-3.98031178039e-05
7.59476187656e-06
-0.000151928248939
0.05090181732
1.74428934664e-05
4.52376456926e-05
3.48912714077e-05
2.18616410012e-05
0.000214765762187
-0.000164970696337
3.10029632778e-05
0.0123045169349
-7.66087281632e-06
1.9228472695e-05
1.12412981028e-05
2.80189853179e-05
1.64160115064e-06
0.0122844273299
-2.1621062356e-06
0.0121823332337
0.000103146644766
-6.28198640566e-05
5.60196894503e-06
-0.0122158307151
-1.26380289154e-05
0.0507686101524
4.85150228821e-05
4.28571910899e-05
3.4062835854e-05
5.49199567927e-05
-9.54076546905e-05
0.000238363676536
-0.00019010985595
4.70341804785e-05
4.77495688776e-05
4.13921374784e-05
5.15372729762e-05
-0.000128885124012
0.000259058147963
0.0506703997805
-0.00021958516877
0.000105427720021
-6.08960549345e-05
6.93771550936e-06
0.0121453719842
-1.43909257506e-05
6.67320063661e-05
-5.42844920488e-05
1.83546086104e-06
-0.0121048273563
0.0120902874829
6.58539487388e-08
3.48441262233e-05
6.21034646251e-05
5.27652212249e-05
-0.00616001642497
0.0176327369257
0.00703468074123
-0.0105671930332
0.00195752171728
-3.2456589128e-06
-4.11141088046e-05
-2.87688282342e-05
0.00338513473197
-0.00221016435688
-0.00723759822191
-7.07211333935e-05
-8.81307688016e-05
-6.50848623691e-05
-0.00364587884209
0.00285320110367
0.00377776947587
0.00460955287085
5.22245831e-05
0.000218876332434
0.0123974246358
-0.00192387063745
0.00106863523065
0.0107283367201
-0.00338489483462
-8.01264352294e-05
-0.000113507444894
-9.23720722422e-05
-0.00381065549584
-0.0038209440612
0.00417044690395
-5.85874616562e-05
-7.38135235482e-05
-7.1473110545e-05
-0.00464630201836
-0.00240906029822
-0.00180823327232
0.00574934867828
-0.01261493549
-7.99106088744e-05
-1.69484874257e-06
3.43740614337e-06
0.0126268675663
-1.2753288847e-05
0.0126040061041
6.61376955702e-05
0.012382820475
-2.90490152976e-05
-1.845301671e-05
8.85504319424e-05
0.0123429555157
-1.10505927307e-05
-1.53115007624e-05
0.012352348185
0.0126170880087
5.11605403915e-05
-0.0127719866727
1.49252361405e-06
-4.86159941479e-05
0.0127494743067
0.012774436044
-5.07285075695e-05
5.51000719208e-05
1.94069874541e-07
-9.35497718493e-06
1.80020729167e-05
0.0122828895908
3.10641131034e-05
0.012297918267
3.41296311125e-07
5.62400390157e-05
0.0127528217105
-4.83004825465e-05
-2.38627957974e-06
0.0122766001656
-0.0127731274498
7.05584743222e-06
-3.2602848445e-05
0.0127523363101
3.50138951634e-05
0.0127736574441
-2.78934840923e-05
3.16812142001e-05
0.0122911950426
2.72473549162e-06
-1.89738264954e-05
0.0122629274416
-3.5187348401e-06
0.0122696726786
0.0127529055602
-2.35119084859e-05
0.0127344873367
1.80612250732e-05
-3.08997435295e-05
4.79876039901e-05
3.22037694843e-05
-0.0127324926726
0.0127098045889
-2.72010313245e-05
-3.83700057215e-05
-0.0122212575861
0.0121876804004
6.77686608655e-06
6.23807027896e-06
-3.53540194635e-05
-1.23209714893e-05
0.0127140302601
4.91809404795e-05
7.66802810788e-06
-2.40544283249e-05
-0.0126929983196
5.71971911769e-05
-4.05495460844e-05
0.012669351983
5.55261171763e-05
3.467756116e-05
0.0126864924385
-2.93482251077e-05
-3.97990212462e-05
0.0121468463132
7.40442920849e-06
7.58097570551e-06
-7.2878458302e-05
0.012108619791
-1.14726470465e-05
4.98952760985e-05
0.0121113679038
7.92057633501e-06
0.01266252654
-3.45988409707e-05
0.0126458367672
5.71665688325e-05
-4.81922277919e-05
6.15455213883e-05
5.40128601822e-05
-0.0126398526677
0.0126269072292
-4.76497374852e-05
-4.21746411304e-05
-0.0120983303473
3.15989544004e-06
0.0120805345906
6.46853198059e-06
-6.65404385015e-05
-1.01182041967e-05
6.59906121093e-05
0.0126330135739
5.25482507834e-06
-4.06404866849e-05
-0.00057043647364
-0.049485304672
0.0494383242317
0.000722694589624
-4.18780426343e-05
-4.6114582797e-05
-3.27649316363e-05
-6.22458596602e-05
7.79246217415e-05
-0.000784698540172
0.0500201771776
2.67357354963e-06
-4.81003516031e-05
-1.42814770758e-05
-4.07526906063e-05
6.52893393984e-05
-0.0498979295415
0.000697399732712
-0.00114648873382
-0.0501115836432
0.0502318503754
0.000896591309279
6.40644734116e-05
4.60247761286e-05
5.21934290476e-05
5.10926658015e-05
-8.37490648191e-05
-0.000668794546051
3.18845843677e-05
3.82622478177e-05
4.17884083438e-05
2.85932357649e-05
-3.43147811853e-05
0.0503299152723
0.000494764217074
-0.050262099505
0.000100100178324
-0.000327387884415
-0.0284276400587
0.0256729157539
0.000198483352648
0.00251602811934
8.78135720823e-05
0.000116803101971
6.47971121801e-05
8.88032242796e-07
-0.0244396832352
0.0254565312743
-0.00262040728143
-0.000781928983949
-2.33282276496e-06
-4.9287261455e-05
-3.230120292e-05
0.0024709019941
1.60542817931e-05
-0.000412129254907
0.018566815905
3.47878290416e-05
-1.95563609148e-05
-1.18003724137e-06
-4.15580202727e-05
-0.0200471896741
0.00190248315058
-6.34294650754e-05
0.000346961270688
-0.0199548307528
0.0259569961396
0.00354603113884
-0.00959702001087
-6.14678867029e-05
-7.67783105413e-05
-9.66820404699e-05
-5.60490883232e-05
-0.00826284569142
-5.68984771691e-05
-3.97796728808e-05
-2.78574102922e-05
0.0246421892743
0.0104737558554
-0.00564640981707
-0.021026127725
0.0933400109135
-0.0102926584623
0.00398491757331
0.000682455569157
0.00251498926782
0.00118329120153
0.00276839814591
-0.0406409784974
-0.0144224135708
-0.0110911018111
-0.00935415197613
-0.0101546514742
-0.00842128729731
0.00294383202602
-0.00398096995703
0.0866414133263
-0.00170402528218
0.0060518244384
0.00708132348939
0.0070293472184
0.00820162856687
-0.0360178652042
-0.00937124407984
-0.00348804934142
-0.002993805121
0.00123626825791
0.00137062194235
0.00995907903842
0.105348061988
0.0079894077924
0.010149316215
0.0113254233639
-0.0450964758478
-0.00440079229574
0.00913900868191
0.00451319334247
0.00380182569854
0.00508751078664
0.00481714429726
0.0445253547789
-0.0252374614666
0.000186230606115
-1.10976472838e-06
-1.18118338695e-05
-7.35359110863e-06
-6.01495208547e-06
0.0490444242543
0.00014219727108
-2.72820914733e-05
-0.0493191367767
0.0491414242457
0.000339583818928
-8.49312846794e-06
-2.44301199413e-05
-1.32470252246e-05
-2.292161941e-05
0.000143461131867
-0.0493691309682
-1.96444950409e-05
8.06852561235e-06
-0.0122088959642
2.14490977187e-05
0.0121902612655
8.76414975846e-06
0.0121965061186
8.72512373683e-05
-5.29056271966e-05
4.1576377427e-05
-6.53249932221e-05
-0.0122061312491
-6.86785281963e-06
-2.2576647669e-05
-4.89770173802e-06
-1.24953462659e-05
-0.000304442832219
0.0122976658486
0.0122528592448
0.0121612314665
0.0122114620188
-9.9546178243e-07
0.000106563371158
-8.79249064992e-05
5.39037564815e-05
-7.75747561476e-05
0.0122007701923
0.00048946653272
-6.68571105564e-05
-5.3269361904e-05
-4.65583213707e-05
-7.30843046017e-05
0.000131544740821
-0.0495269123009
0.0496995411673
-7.79433312042e-05
-8.37203972736e-05
-8.2044537627e-05
-8.46117920932e-05
0.000166542175308
-0.0496678515961
0.000619694737902
0.0122142299504
-9.49866828971e-05
8.86467334861e-05
-0.01221605122
9.49980189374e-05
0.0122795345877
-0.000109913951546
0.00011960010544
-8.76960377769e-05
-0.0122726058589
7.07566154844e-05
0.00101915061394
-1.9537116224e-05
1.50650441432e-05
-5.0915295245e-06
1.46574182411e-05
0.0493817263899
-0.000227661223237
-0.000186747703082
-0.000230681923799
-0.000186213122539
-5.02536307283e-05
-2.37071815497e-05
-3.72102589864e-05
-2.53194124345e-05
0.0497415139311
-3.15672736572e-05
-6.28672645635e-05
-5.83090638658e-05
-2.98154150884e-05
7.84934419668e-05
0.0498837817032
0.000944761886203
-1.79014449869e-05
1.57953311246e-05
1.31694375478e-05
-9.30963023081e-06
-6.97329159239e-05
8.21032842641e-05
0.0122236008519
0.000116352680902
0.0122366621769
-5.520530794e-06
-2.92045550678e-06
-0.0122358560875
0.000175669299056
-0.00016799672936
9.46879265744e-05
-4.92013974326e-05
8.0869212374e-05
-0.000111877973888
0.0122658902368
0.0122567709653
0.000133041711899
5.0165396336e-05
-2.25185490526e-05
-0.000159522323831
-0.0122578919851
0.0500207526205
4.69192555553e-05
4.87291276875e-05
4.44910836905e-05
5.70596879294e-05
-0.0012775544692
-0.000203487850964
0.00129361296612
6.40080828545e-05
6.7412448622e-05
7.03938208085e-05
5.95366819992e-05
0.0504885445055
-0.000359550579609
-0.00166352261515
-2.64508299045e-05
0.0122515128115
0.000191652759768
-0.000179497528742
-1.82833876734e-05
-4.27441612666e-05
-0.0123268177096
0.000204955384221
0.0123893909982
-0.000206503142432
0.000143548518811
7.46131942433e-05
-6.48010014649e-05
-0.000171339699405
0.0122745900806
0.000164109839354
3.6433886644e-05
-6.06731740865e-05
-0.000181724500003
-0.0123335475425
0.0123752397262
0.00079637980017
1.98624163882e-05
2.05012313707e-05
8.10567897471e-06
3.42195334821e-05
-2.5935841325e-05
0.050207343152
2.86637857848e-05
3.784851838e-05
3.76832107736e-05
2.7530838471e-05
-1.75229159518e-05
-0.0501461802896
0.000621029973817
4.28114812478e-05
0.0122856891689
8.6890140979e-05
-0.0123043829495
0.0122677122652
4.2063291681e-05
-3.72306483001e-05
-0.0122669500486
0.000127230820362
0.0123080229641
5.65798923567e-05
-6.51028730233e-05
-0.000107836449104
-0.0123031642713
0.000111468398705
0.000972656971794
7.82641073883e-05
6.33866874458e-05
6.51469657365e-05
7.88584569017e-05
0.050440083986
-0.000173001447853
0.0503088968865
6.78431673238e-05
5.16057825968e-05
5.53896702572e-05
5.85430356623e-05
-0.000107337978796
8.44485128798e-05
7.43755327852e-05
7.24943495765e-05
8.52844414902e-05
0.0504181325261
0.000704973985802
-0.000158172684847
-7.26095503263e-05
0.012284058091
0.000136461970104
4.11546661911e-05
-7.80249671532e-05
-0.012339140696
0.000162157667325
0.0123779904342
0.00012433171645
6.88126801216e-05
-7.97326364376e-05
-0.000122047641762
0.0123167486086
0.000159885544128
6.91027337603e-05
-0.000101463855538
-0.000151659896402
-0.01235533254
0.0123795047291
-6.73410254943e-05
0.0123284925644
0.000125945705434
-0.0123188507657
-7.37914083925e-05
-0.0123628993947
0.0123818444263
6.04274190151e-05
0.000154223801648
0.00142785190034
1.10955337478e-05
2.43669163214e-06
-1.45363036508e-06
0.0336378539954
-0.00016156391938
-0.0344246496193
-0.000511954553371
0.0327954079683
0.00222751229322
1.18631991132e-05
2.61253856108e-05
1.60179789288e-06
-0.0340446782074
0.000354791576737
0.0024769838178
5.14419430292e-05
9.50475988818e-05
7.74943505493e-05
-0.000276606902558
0.0299550020549
0.0175910156732
-0.00197625737742
-0.001804301741
0.000581263363794
-0.0103998295821
-0.00104884153457
0.0230330402414
-0.00247407095065
-0.00123810756859
0.0192105358189
-0.00433820704277
-0.0118615710895
0.0248403052889
-0.00366768040729
-0.00183155817318
0.0155583018101
-0.000416389843351
-0.000917668532173
-0.00229011531687
-0.00044905472693
0.00909130020913
-0.000339750523034
-0.00209936521774
0.0172898324457
-0.00228048227929
-0.000741447329521
-0.00181140013469
0.0101937346698
2.69072126231e-05
0.000792326733039
7.02613656974e-05
0.000128618804904
0.000108940106031
0.0038975026941
-0.0312904403779
0.0226131537278
0.000126969624079
0.000130564895583
0.000122669048541
-0.0254161662137
0.00303651442641
7.32936111904e-05
-0.00106406956526
0.00103434884258
3.50848710539e-05
5.77210465702e-07
3.41213140545e-05
0.00118559833272
0.0206440904019
0.00157307298181
8.44834196171e-05
1.50195645805e-05
2.97253040768e-05
-0.000609232495238
0.0204028036607
-0.000112432540628
-3.33161920799e-05
-2.24023147656e-05
3.81980520042e-06
0.0190337938066
-0.00378079172993
-0.0110548505254
-0.00214446839897
0.0256305518713
0.0199346739908
-0.0023882096959
-0.0127346854401
0.0259955801669
-0.000622118375438
-0.0030591516434
-0.000855476344009
2.99524184461e-06
8.67044898345e-06
1.9306217901e-06
0.0267561700754
0.00257647689852
0.0250905263412
-0.00672977571699
-4.28046552042e-05
-8.33420336151e-05
-3.39523224666e-05
-0.00511764362046
-0.000824724630322
-9.42933621395e-06
-6.11822803971e-05
-1.84212997349e-05
0.0281006539086
0.0191421507608
-8.07652941976e-05
0.000807987160659
0.0126842969999
0.0191929426209
0.00121851598019
0.00282198228573
0.0134404044644
0.00255014892894
-0.00382144767571
-3.23739510075e-05
-8.05806556995e-05
-7.58969959051e-05
-0.00542469174546
0.0209879841458
-6.76672008963e-05
-5.35819118937e-05
-7.12205269294e-05
-0.0189121094318
0.0061484636187
0.0199134514683
-0.013363348182
-0.000944173323308
-0.000163050749042
0.025790934547
0.0266004196772
-0.0203082313667
-0.000550141821198
0.00364163145743
-0.00861359531658
-5.13936651654e-05
-9.30834555899e-05
-0.000102695421867
0.030393062928
0.0265418983855
-0.00995539773629
-7.71433598769e-05
-7.38586016262e-05
-9.60603118453e-05
-0.00979067759166
-0.00010076714056
-7.32862229494e-05
-0.00010698351341
0.0309283253253
0.00939576998672
0.020911180354
0.00100330699152
0.00207065977832
0.0168544908559
0.0234772572603
-0.000746273988921
0.021651070584
-0.0010769622808
0.0123418067048
9.76222268391e-06
-2.41575944533e-05
3.10229563205e-05
-0.0123595539655
3.03994629336e-05
-0.0123364331858
0.0123138201376
-1.16129216741e-05
2.27462880821e-05
-3.68502561071e-06
4.2271695846e-06
-0.0122210382947
-1.68245441893e-06
-0.0122068223309
4.42931788539e-05
0.0121876502699
4.41131148522e-05
0.0123185830754
4.48342080952e-05
-0.01222068136
-1.29848609449e-05
-0.0123575741725
0.0123526859131
3.5967927236e-05
9.78775025291e-07
-0.0123673092334
-5.53559427822e-05
-0.0123698862761
0.0123673890881
7.51078672913e-05
1.03547133527e-05
-0.0122060388507
0.0121863729912
2.74483702793e-05
-6.20425528046e-05
7.52490550138e-05
-0.0122205408084
0.0123383077859
4.9207379586e-05
-0.0123787632001
-0.0122209191423
-0.0123305772298
0.000116638764889
-3.10443996527e-05
-8.3926748667e-05
0.0123220628987
-8.01424405051e-05
0.0123678178086
0.000111104907579
2.02709677852e-05
0.0121860755787
-4.68810084741e-05
4.2108827989e-05
-9.42434407566e-05
0.00012991201534
0.0122193167935
-5.70356175732e-05
0.000151004458511
0.0123635046936
-5.57763201613e-05
0.012193712604
-7.41102313447e-05
0.0124292625577
-0.000111448032894
0.000105224476264
-0.0124157660998
-0.012397317802
0.000102376819489
0.0124054863137
7.35227589791e-05
7.69288680901e-05
-0.0122210479709
0.000121593933948
-0.0122280484497
9.79649949809e-05
0.0122320540953
-0.0123947797946
0.000135839636259
0.0124449669859
7.14142958523e-05
-0.0122247973563
0.0124627690614
0.000135232499843
-0.000127690109053
-0.0124427355229
-0.000166231348271
-0.0124932342701
0.0125100536771
0.000185589490782
0.000129234424044
-0.0122512775349
0.0122593398325
0.000133423495994
-5.78303649815e-05
-0.012262876143
4.51892476128e-05
0.0124802153572
-0.012468230527
0.000159552016447
-0.0122423184158
-0.00017983486906
-0.0124554668594
-6.18844125655e-05
0.0124512928522
0.000203902357726
0.0124125726529
0.000140478838921
5.79472184286e-05
0.000144443776963
0.0122376793641
0.00010274227265
0.0122420680273
0.000120557568735
0.0124091109829
0.00017090299119
0.0122472878969
0.000142120818846
-0.000220426371946
0.0124503059178
-3.52464604109e-05
0.00023718878344
-0.0124065798404
0.000260980493372
0.0123989153619
-0.000241258326127
2.68810185094e-05
0.000154887179845
-0.000143553796225
-6.37607282017e-06
-0.0122429247758
0.000176165269749
0.0122484784692
-0.000196001771153
0.000270687436848
0.0124485470909
0.000158457996331
-0.0124926106475
0.000217270613357
-3.95145684119e-05
0.0124873138467
-0.000197684483553
0.012517360174
0.000208560991861
9.66835542617e-05
0.0122594257122
2.50259259928e-05
-0.00012941856832
0.0122696537879
0.000115517160353
0.0125116303329
0.000218051099098
0.0122627730007
0.0124861220275
0.000244036338932
-2.36941667589e-05
-0.000268875960947
-0.0125152583478
0.0125177869253
0.000259432973822
-1.5687443313e-05
-0.0122561764566
0.0122541410793
9.86445027407e-06
-0.000144733808412
0.00012421202549
0.0124848914846
0.000240822097211
-0.000337599247891
-0.0124477107963
5.04821003325e-05
0.0124590090987
0.000338190092447
-6.23950904439e-05
0.012403099174
0.000302493602722
-4.88630228681e-05
-0.000284451665368
-3.46222188594e-05
0.000195752753779
0.0122817270588
-0.000193458119868
-4.86485875126e-05
0.0122574993079
0.000181516319378
0.0124205739954
-6.03788786903e-05
-0.000329304229461
0.000305563685577
-5.0912448599e-05
0.012282614118
0.000188267933997
-0.000368548477858
4.61969292525e-05
0.0125174178992
0.000370726934668
-0.000106552355831
-0.0124924351653
0.000386037500532
0.012577286251
-0.000391440010491
-0.000122233430095
-3.92619675553e-05
0.000199084902017
-0.000201819959552
-0.0123329959587
-3.85668971203e-05
0.00020094137685
0.0123845911911
-0.00036296591668
-0.000117012260336
0.000197445982871
0.000388766760063
0.01258438867
-0.000108370722642
-0.0124852023337
0.000327182626146
4.42581129924e-05
0.01249888718
-0.000301582636752
0.0125186808981
0.000284414077886
-4.78833444618e-05
0.0122687212546
-7.47858970307e-05
-0.000175776898081
0.0122928474678
0.000148917239826
0.0125252798673
0.000302809804439
0.0122922919392
0.000349689477859
5.00611410733e-05
0.0125337227087
-0.0125437320312
-0.00036083764986
0.000333592139
0.0125777558159
-0.0123395417472
-3.70620542179e-05
0.0123856379238
-7.8840806687e-05
-0.000181442880517
0.000158404730903
0.000323010192441
0.0125840988927
-0.000207598551543
-0.012545786835
2.01869098205e-05
0.0125482238607
0.000187628877659
0.0125325992444
0.000200715583377
-0.0125302119706
1.80079277021e-06
0.000100399481571
0.0122794900604
2.55134013066e-05
0.0122982622935
-0.012317943291
8.04078829608e-05
0.012530223684
-0.0125405574712
0.000179748284901
0.0122904901478
8.67296548503e-05
-0.000230180065455
0.0125511400596
4.55522950559e-05
0.000201276548204
-0.0125379453026
0.000240898027655
0.0125396915325
-1.09701966788e-05
0.000115044298015
-6.38350939668e-05
-0.0122765702544
0.000110928617443
0.0122759977703
0.000209242114661
0.0125531305449
9.86321050419e-05
0.0125615159316
0.00016996001859
5.93394573815e-05
-0.0125608961751
-0.000175683423806
-0.0125683793192
0.0125700694191
0.00014674190828
-6.85533353985e-05
-0.0122901405038
0.012294030419
-5.31545224648e-05
-9.77766517246e-05
-0.0123090385421
0.000103156283417