/*--------------------------------*- C++ -*----------------------------------*\
| =========                 |                                                 |
| \\      /  F ield         | OpenFOAM: The Open Source CFD Toolbox           |
|  \\    /   O peration     | Version:  v1906                                 |
|   \\  /    A nd           | Web:      www.OpenFOAM.com                      |
|    \\/     M anipulation  |                                                 |
\*---------------------------------------------------------------------------*/
FoamFile
{
    version     2.0;
    format      ascii;
    class       surfaceScalarField;
    location    "12.9";
    object      phi;
}
// * * * * * * * * * * * * * * * * * * * * * * * * * * * * * * * * * * * * * //

dimensions      [0 3 -1 0 0 0 0];
oriented        oriented;


internalField   nonuniform List<scalar> 
92311
(
0.203999159254
2.7138774648e-05
-0.00126773305504
-0.203779854738
0.00102129002633
-7.48664002409e-05
0.204164132688
-0.000931734963967
0.000841910072654
0.20402315769
0.000109315728242
-0.00132256157788
-0.203826370214
0.00104389089971
-5.25805273721e-05
0.204137236211
-0.000934043356853
0.000798039459988
0.203729463358
0.000160490573589
0.000128814503893
-0.0013887781705
-0.203839542249
0.00103983871901
0.000146608650009
0.000132617610338
-1.3045096897e-05
-9.88492381783e-05
-9.69037481682e-05
0.204018900304
-0.000920772071983
0.000782301606817
5.4140904332e-06
0.0511924975057
5.96190474143e-05
5.46370652764e-05
5.50515153429e-05
6.08169469503e-05
-0.000380010638965
-0.0511793319579
0.000297238725831
-0.0512209282076
0.0512073602379
1.15790721321e-05
2.85906707497e-05
2.29762476133e-05
1.45103143528e-05
-0.000253702207123
0.000176597772153
-4.22387466545e-05
-0.0104924726653
-4.24865216145e-05
-4.04892295749e-05
-3.70438198988e-05
0.000299903509979
0.00823668062263
-0.0014595626324
0.00357777160487
-0.0198793919758
-0.000134779820295
-0.000907768656765
0.0177528441521
2.06712086022e-05
1.79566332122e-05
7.43993450505e-06
2.03135030272e-06
0.00312087622692
-0.0130217505456
0.00334481902777
0.00481719216219
0.00458840745558
-0.0176132815144
0.0376816292831
0.0420248154989
0.00423571153894
4.48249482695e-05
4.73523039099e-05
4.17391371681e-05
5.27046183922e-05
-0.000319180115885
0.000232975145047
-7.11502774045e-05
0.0117801486723
9.41533434626e-05
-7.18658249153e-05
-0.0117735160848
0.0118045429913
2.83383326207e-05
-5.8400346543e-05
-0.0117993195624
0.000101392914811
-7.65341646901e-05
9.27526571264e-05
-2.58376254978e-05
0.0512361392826
-2.25180859808e-05
-6.51526985553e-06
-1.90902009608e-06
-0.000163560222048
-4.17275341924e-05
0.0511703658274
-5.03045497907e-05
-1.43622758428e-05
-2.25761783818e-05
-0.0511311200179
8.55318320051e-05
4.85999709252e-06
-4.8289019642e-05
0.0118165125861
9.25040728342e-05
-6.10593027867e-05
1.44382133635e-05
0.012764329168
-2.38928668056e-05
-2.05399180234e-05
-0.0127601784086
0.0127540102719
1.38326375619e-05
-5.07666955061e-05
-0.012744331581
-0.000115876334994
0.204225231217
-0.00210108177631
0.00177487316716
-0.203783146547
0.204262077504
-5.92322892825e-05
-0.000511763157573
0.000473539089087
-6.55671001777e-05
0.204361110207
-0.000353347781995
0.000320235711643
-6.47082195911e-05
0.204295660423
-0.00215493706982
0.0017916860395
-0.203983277931
0.204358318114
-0.000160552355494
-0.000626079349989
0.000506708137425
-0.000130863518029
0.204566532406
-0.000442460837629
0.000299815230848
1.800105325e-05
0.000117240557454
0.000144345174236
-0.00229947575953
0.204321688905
0.00186528499735
-0.204263137873
3.15441971551e-05
-0.000161405057568
-0.000149562704129
-0.000189989577902
-0.000210537104923
0.204577198491
-0.000477081327768
0.000469805920867
0.0513165499218
1.92312662959e-05
-8.08390458646e-06
1.26097846869e-05
-6.0104327881e-06
-0.000673066620848
-0.0512476434726
0.000604377938753
0.0513030305274
4.68571024062e-05
-4.01849657389e-05
-3.30803437874e-05
-5.48653395925e-05
-4.64643103462e-05
-0.000100511911441
-0.0038963086106
0.000100033816242
-0.0203790862125
1.89705571899e-05
3.32214839785e-05
2.07883670555e-05
3.84709593151e-05
0.00418459082101
0.00928986226836
0.0106113885856
0.0110030504173
-0.0285847257512
-0.000244021813696
0.0659993107296
0.020239704721
0.00769527672416
-5.01530656579e-05
0.000638547007197
-0.00023420479377
0.000488761477349
-0.00392194628196
0.0306571610494
-0.0108781686332
0.00053355177625
3.57948619551e-05
4.0853054136e-05
2.85843401439e-05
4.96640486693e-05
0.0513533826943
-0.000608090030735
5.56814361298e-05
6.80306764646e-05
5.2249199159e-05
6.21640981607e-05
0.0512673122313
0.00041836566746
-0.0512459393938
-1.0655534639e-05
1.38774100313e-05
0.0117652498289
-1.74581422382e-05
3.40769954189e-05
-0.0117851074424
2.59583728722e-05
-4.54849543423e-05
-0.0117467833419
-9.78977554295e-06
2.81108983409e-05
0.0117480167306
8.51339222243e-05
0.0128013323209
-0.000129218239135
9.90672428408e-05
-0.0128006417792
3.35534606327e-05
-4.97324974669e-05
-4.92183092948e-05
-4.22013726966e-05
-5.56181650042e-05
0.051398449851
-8.17361093824e-05
0.0512722432695
-6.24662492691e-05
-9.2359630761e-05
-6.87435369983e-05
-8.6358863967e-05
6.49390327456e-05
-8.85483681678e-05
-9.67875090137e-05
-8.27129822765e-05
-8.59998606161e-05
0.0513933896848
5.57797865291e-05
5.94248648323e-06
-1.28434447203e-05
-4.3095452065e-05
0.0127741476849
-2.25893250213e-05
4.58195381992e-05
-0.011676482583
-8.00450516438e-05
0.0116425834531
9.07155587526e-05
7.28184512939e-06
-7.69904072203e-05
0.0127672458383
-0.0127848977223
-0.000123649581003
0.0128122726404
-1.33013450047e-06
9.07856264418e-06
-0.0135879264457
-3.43088126406e-05
-2.71331210179e-05
-3.06835881389e-05
0.000324039621076
0.00444650038646
-0.00155449251485
0.000141182232291
3.80278742281e-05
3.63421128337e-05
1.36729839372e-05
5.80324595206e-06
-0.00639651252172
0.00348750057718
0.00253914396537
-0.012109845105
-0.00298697716917
0.00557605409944
0.0130094781484
0.00558031079503
-0.00258789605691
-0.0111932430667
-0.00084251194614
8.72652279704e-06
-8.49540844458e-06
-7.50310596764e-07
0.00108322891756
0.00392979959884
-0.0085523041955
0.00865357739718
0.00922590611361
7.52835658542e-05
0.0127895510606
-8.71861981664e-05
-0.0127891813632
-0.012780939385
6.26904691697e-05
-6.98081523058e-05
0.012781683348
6.10073188365e-05
9.90157801688e-05
-7.15817199102e-05
0.0117872621327
-7.70311402855e-05
-6.47761732561e-05
0.0117933093064
-0.0117884455179
0.000113577337721
-0.0127795870724
6.42025377702e-05
0.0117968033564
0.000121158310521
0.0127905700501
-8.16124891093e-05
0.0127758826798
5.99836274246e-05
-6.80141160531e-05
5.86813254264e-05
6.31581525687e-05
-0.0127853802773
0.0127851817736
-7.39910778055e-05
0.000100948832805
-6.94781559301e-05
-7.78052346368e-05
-5.2128830089e-05
-0.0118002170313
0.0118009336438
0.000125648516727
0.0127744291851
5.41919452049e-05
0.000126871360946
-7.95851508824e-05
-0.012765120036
2.34345401415e-05
-4.69486530685e-05
0.0127658409484
3.4377219628e-05
5.5594005117e-05
0.0127767136895
-6.67715613933e-05
8.02910821115e-05
-2.59031858726e-05
0.0118158716062
-4.5010025336e-05
-4.26215614099e-05
0.0118099732362
0.000117601929132
4.52833573742e-05
0.0118057828106
0.000107245406162
0.0127770675595
-5.86727242862e-05
-7.92471042788e-06
-0.0127725792425
0.0127722732689
-3.81451547726e-05
3.15988397643e-05
-0.0118052652657
0.0117874310695
-9.31812616241e-07
-0.0117996974995
5.08877762108e-05
0.0117777613523
1.16076628054e-05
-3.48088282106e-05
2.23929349521e-05
6.02696882914e-05
-1.50649381437e-05
-2.71378507846e-05
8.00617071182e-05
-4.73800635778e-05
-6.76186589356e-05
-0.0127363089935
0.0127483157462
1.91367340567e-05
6.54315812459e-05
-0.0118099373952
0.0117826632627
-0.0117957677154
0.0117616991923
6.82696697249e-05
1.78773270452e-05
4.85604501844e-07
-0.0127546431329
1.68305725858e-05
-8.7408120226e-05
-0.0118059743961
9.44829424515e-05
-0.0127453205084
2.1127977827e-05
-0.0118109208335
-0.00259133854223
0.00424884768936
-6.81047617816e-05
-6.94870818451e-05
-4.78709809457e-05
-4.51038912654e-05
-0.00818192115661
0.00752684564101
-0.000771939208574
-0.00594916252346
-0.00731674142265
0.0101150307061
0.0098510271467
-0.0100021709362
-0.0011317571373
-7.99912823365e-06
-1.66572621335e-07
-2.07650053031e-05
0.00301963540377
-0.0019796741648
0.0101123172158
-0.00203319432452
-1.30765006681e-05
-4.18893458075e-05
-2.9082521611e-05
-0.0111868677538
0.00757667739708
-0.0107370846626
0.000987143558095
0.013600073655
0.00563149770267
0.00128018924459
-0.00898725010402
0.00084358348719
-0.0112835292992
5.98085613356e-05
6.17049748028e-05
7.35669601946e-05
6.95431543808e-05
-0.000116974371739
-0.00278725953283
-0.00351285737943
0.00411357881547
-0.00254845471165
-0.00208949072568
0.00113186223176
0.00621858247523
7.60311920598e-05
7.79630067013e-05
5.4719141803e-05
6.2711126067e-05
-0.0151425286701
-0.00376314409339
-0.00171815205775
-0.00388783243732
0.0029983715066
0.000614079383322
2.1252375489e-05
4.69468334228e-05
3.98673307878e-05
-0.0201032117675
0.00519804932656
-0.00197100949839
-0.00119335770354
-0.000166778227175
-0.0128213988047
3.09519647845e-05
0.012819405345
0.000157046595766
0.0128260645642
0.000167869320787
-0.000172589928489
-0.0128155718033
-1.44200131825e-05
-1.1736448388e-05
0.0117537659305
2.97244953469e-05
6.45525723323e-06
0.0117582682395
-0.0117821422171
-1.72921454808e-07
0.0128282546877
-0.000170858387232
-0.0128116676066
0.000158487205383
0.0117481308697
8.53733634319e-06
-0.000162248311949
0.0128227216592
4.32555745991e-05
0.000151413072232
-0.0128353894995
0.000153757462198
-0.000157483343084
0.0128344380461
-2.45935024086e-05
-1.17676696149e-05
3.02290518885e-05
-6.16890656666e-05
-0.0117434925704
8.83847622811e-06
0.0117446466599
-0.000165529971482
0.000141915106292
0.0128224495847
7.02563613386e-06
0.0117560509116
-3.96276783541e-05
6.37933263295e-05
-0.0117631750719
-9.74030626429e-05
-4.22148404775e-05
0.0117582682768
6.78833584598e-05
-0.00012071339473
0.0128009057684
9.16727215159e-05
0.0128118910807
7.35629185624e-05
-0.0128111432877
-8.36579845122e-05
-0.0117514154635
0.0117538012256
0.0128115356355
-0.0117556424105
-2.21895726872e-05
0.0127790554268
-3.04998368104e-05
4.34999459482e-06
0.011756890404
2.29832810675e-05
0.0117492505691
2.30085175314e-05
-8.07668272014e-06
-6.08001537723e-05
0.0127862926185
1.85747280044e-06
3.67315726295e-05
-2.46035452183e-05
0.0117133999763
5.21641900061e-05
0.0127892037666
-2.78995949421e-05
0.0117090209985
-6.63323582198e-06
-1.0573093442e-05
0.012806570094
-6.23810959149e-05
2.95903953779e-06
-0.0128073824108
1.42053753624e-05
0.0128235244421
-3.37321654049e-05
3.98320661365e-05
-5.23342330279e-05
7.06814732264e-05
6.57951591308e-05
-0.0116685116956
-6.30955149927e-05
0.0116326997288
-3.10359918471e-05
6.6579661619e-06
0.0128243189821
-3.434821477e-05
-0.0127625292577
-0.000122209845971
-2.68757248932e-06
1.02454011931e-05
-9.05033839384e-05
1.50909103898e-05
3.55246684463e-05
0.0117528999146
0.0117353032907
3.3122034281e-05
2.02585930284e-07
0.0116921620218
-5.87629047798e-06
-0.000107096582061
0.0127874408823
0.0117089843582
0.0116584677771
3.59795563448e-05
-4.96467846695e-05
0.000125656171777
7.16083951983e-05
0.0116217480518
-8.26576114289e-05
-1.47422859901e-06
0.0128359759818
6.74715568559e-06
0.0128115417784
-0.000104933529348
0.000100201769849
-0.0116684181172
0.0116315341425
0.0128309918023
-0.000156361384283
-0.000196629084078
-0.00015821183596
-0.00024293661468
0.205141284885
-0.000144733886561
0.000203962436669
5.06636264978e-05
-4.66795817029e-05
-4.20886570634e-05
-4.1687760876e-05
-4.74338900148e-05
-9.14011062838e-05
0.0514607288139
3.12169998929e-05
-0.00701984790547
0.000479635646867
2.65586639051e-05
5.08229403319e-05
4.66899283712e-05
0.00470409903407
-0.0184222617259
0.00198182979708
0.00136246810246
0.00191095028284
0.00763095710218
0.0256667817622
0.0022663985231
0.00605831731299
6.04027540026e-05
6.50458107706e-05
5.95208941474e-05
6.38630798378e-05
-0.000143102399319
-0.000487531188711
0.0512690770009
5.2275024876e-05
-9.25743195573e-05
-4.2897302184e-05
0.0117695893747
0.0514799285263
-6.38452046661e-05
-8.29206556454e-05
-7.0670180006e-05
-7.46212842982e-05
5.94254009967e-05
0.0514787783648
-4.46591309871e-05
-3.50688996495e-05
-3.12719170871e-05
-5.23365877525e-05
-5.32464665173e-05
5.93592857117e-05
4.27891485202e-05
0.011618388122
-0.000102632590164
0.000115270608131
-8.29078795455e-05
0.00011330233169
9.79280134972e-05
0.0115960573296
-0.000102641621823
0.0115638399337
-3.04314005076e-05
2.41227417505e-05
0.000154749294001
-0.0115647245198
-0.000147515802052
0.0514412419422
-8.71216135959e-06
-2.05069407872e-05
-2.09892569472e-05
-5.14935382861e-06
8.85811116587e-05
-7.50250540493e-05
7.93045464465e-05
-1.43920647379e-06
7.02055223501e-06
-2.09248844628e-06
5.85966446076e-06
5.01115563124e-05
-5.3830895953e-05
0.0513750572466
6.0507387142e-05
-1.26753117652e-05
8.13637480086e-06
0.000166895758749
0.0115588655961
-0.000157397305064
1.49225882599e-05
-2.03580047892e-05
0.000197853894089
-0.0115617880777
0.0115645940766
-0.000195200157524
-3.83620881565e-05
-4.72237387343e-05
-3.6304250792e-05
0.00619142501381
-0.0118563871221
-0.00204278487157
-0.0164043501649
0.000877645800753
5.64947954631e-05
7.01665801364e-05
4.64835446192e-05
-0.00689197168887
0.000521073819187
-0.0155247051717
2.66120645075e-05
5.07269099234e-05
3.94483642777e-05
0.00647918444324
-0.00802703586156
0.00199112013067
-0.00231803126587
0.000815576817573
-0.000721801396817
0.00106036165122
-2.02216263121e-05
0.00262915974122
-0.000891804746159
-0.0124895075066
1.49974384217e-05
-4.70204752168e-06
-2.20105992738e-07
0.00223770563529
0.000333308582274
-0.00562907625802
-6.0180878621e-06
-1.5609402191e-05
-6.27935179068e-06
-0.00309704773212
2.1948578997e-05
-0.00841991592161
-0.000951835501107
-0.0128089528657
7.85294889213e-05
0.000105578428725
-0.000123177774454
0.0128084220891
-0.000113175416434
0.0127993654648
-8.06277607458e-05
0.0117624739401
-9.33627486211e-06
-4.14857081091e-05
-8.72542958349e-05
0.0117740823932
-0.000131727810995
-6.94733555868e-06
0.0117701711767
0.0127998882437
-2.30054033823e-05
-0.0128462018668
-5.30695844086e-05
1.51055387617e-05
0.01286048172
0.0128418218996
2.20990451785e-05
-3.96848987902e-05
3.82479325742e-05
-0.000129089985217
0.000140962361699
0.0115948418814
6.03962349983e-05
0.0116093698324
-8.89136854765e-05
-3.93099128684e-05
0.0128547129804
1.3123045446e-05
-0.000114316146274
0.0115881829891
-0.0128563630095
-6.90727889035e-05
9.79428815163e-06
0.0128669449678
-3.90322139182e-06
0.0128616853126
8.56489192562e-06
8.68104951619e-05
0.0116102995744
0.000118894432007
8.75082695909e-05
0.0115791081069
-0.000119269855392
0.0115923701298
0.0128710046532
1.32575166683e-05
0.0128745972961
-4.94602273899e-05
2.15746697353e-05
-2.44386026477e-05
-2.26893342673e-05
-0.0128799967992
0.0128709155818
2.07824242994e-05
2.25652603865e-05
-0.0115792692325
0.0115769051367
0.000161182141837
0.000137286789154
5.9490746955e-05
-0.000131709825055
0.0128697215914
-2.6451836036e-05
0.000140430355602
1.96777074872e-05
-0.0128637730172
5.42991193185e-06
2.5610671037e-05
0.0128523072539
-2.82893774085e-05
-2.6413125189e-05
0.0128609319734
2.40339260115e-05
1.14754643367e-05
0.0115722162123
0.000175089012939
0.000178002334495
-1.29682541617e-05
0.0115587697435
-0.000169722886499
-3.00274354551e-05
0.0115685919321
0.000186822770852
0.0128452927193
2.30802223532e-05
0.0128414937316
1.01809910281e-05
2.46928286808e-05
-2.55252985415e-05
-1.81242808859e-05
-0.0128318257697
0.012821299852
1.5324355943e-05
-5.91768330199e-06
-0.0115664092058
0.000199468837993
0.0115646997946
0.000189025453544
-2.33961987043e-05
-0.00018427695342
-1.82798147785e-05
0.0128336139599
0.00019509301031
2.065941196e-05
-0.000446067410896
-0.0496515566313
0.0495208626823
0.000551709933832
1.69451604212e-05
2.20421174202e-05
3.14512123648e-05
1.24705671538e-05
-5.75902479938e-05
-0.000629513945158
0.0500961133365
-4.78228146498e-05
-4.21509862048e-05
-4.25796754348e-05
-4.78674735839e-05
0.000126125046047
-0.0500647827148
0.000652527087464
-0.00107609579073
-0.0501713716058
0.0502811963039
0.000970712449905
-6.74366215564e-05
-4.46500699035e-05
-6.21227731799e-05
-5.13345910633e-05
0.000221116314736
-0.00085943187556
-3.88897765412e-05
-3.05755795278e-05
-3.89899914875e-05
-3.03532860162e-05
0.00017436772327
0.0505165142921
0.000743255258621
-0.0504358990738
-5.3796517593e-05
-0.00776638270746
-0.00533131040953
0.010677575021
0.00876854788944
-0.00613985772973
-5.69902230556e-05
-3.44302866712e-05
-3.37455065014e-05
-5.00347566669e-05
-0.0152296082821
0.0181276071164
0.00812393246197
-0.00369005464252
-4.25940738865e-05
-2.12153357216e-05
-6.8030514867e-06
-0.00718573189588
3.41032956213e-05
-0.00683144720457
-0.00693074016653
-0.00134003111345
3.28740101968e-05
5.34500197233e-05
5.35051470596e-05
0.0119552986264
0.00297302190996
6.01888440835e-05
-0.00675080791596
0.00243245503985
0.000911766629208
0.00325549543017
-0.000139765763785
7.50424364213e-05
7.34938595817e-05
8.26448899028e-05
5.11991452685e-05
-1.32862487175e-05
5.44312181437e-05
4.54127703236e-05
4.96832695188e-05
-0.0102319809988
-0.00181088885199
-0.000729471774128
0.0125849316002
-0.00772561899139
-0.0211365375741
0.0098241949695
0.00904631860627
0.00858657357658
0.00868047603323
0.00196731709066
0.0413522294578
-0.0476562264904
0.00307595189682
-0.00419616257402
0.00333069435894
-0.00116876848512
-0.0210750110344
0.0650767780113
0.0221604903782
-0.0212269108289
0.00749065286976
0.00706329081837
0.0050061572818
0.00439910306242
-0.000871249109382
-0.0211650953815
0.00366024237324
6.92506151834e-05
0.00150157002136
-0.00100333406497
0.0243579466777
0.0380089690054
0.00507444065523
0.00424554077091
0.004146249768
-0.00587812987916
-0.00572152317114
0.00465857536121
0.00228257517708
0.00132549505204
0.00243929989555
0.00157306549852
0.0655373870633
-0.00600142102777
8.91872139671e-05
4.35396906871e-05
6.56363079614e-05
5.43812641728e-05
5.58446669139e-05
0.0494154801447
-9.96657957324e-05
8.4972826646e-06
-0.049632815395
0.0494356401234
0.000262043259913
2.95271418928e-05
3.00303932548e-05
3.7606720805e-05
1.99005016991e-05
-7.24307578313e-05
-0.0496530521821
8.46579500636e-05
-9.36316873886e-05
-0.0117519024585
0.000111219999084
0.0117419181307
-9.22845049797e-05
0.0117800233779
0.000108530991415
4.94842998423e-05
-2.69091086283e-05
-0.000116217029523
-0.0117947664542
8.17743519307e-05
5.05412037113e-05
6.69407156363e-05
7.06498298784e-05
-0.000218593630646
0.012324665896
0.0122316670122
0.0122514232782
0.0123132517315
-0.000182647247343
0.000123685783371
5.80241463612e-05
-4.30895463093e-05
-0.000134753160183
0.0117759325353
0.000369476441006
-5.23459621474e-06
1.06850894369e-05
2.14076208316e-06
-2.02607686301e-06
-2.14885969501e-05
-0.0497430300827
0.0498692426866
-2.63714677041e-05
-3.39218185108e-05
-2.23707951766e-05
-3.39193596594e-05
1.81693373557e-05
-0.0498701090477
0.000468824631315
0.0117904736951
4.80251343435e-05
-1.26494204405e-05
-0.0118040706481
8.66932543527e-05
0.0118104648705
-1.28649830952e-05
5.43577841374e-05
-4.23942434123e-05
-0.0118252626728
1.54585459892e-05
0.000797486256585
3.29253526802e-05
4.96559407142e-05
4.57218251013e-05
2.96238793801e-05
0.0493828956778
-0.000192082808124
-0.000142582801305
-0.000189992102785
-0.000151472868174
-5.06706101666e-05
-3.01596424331e-05
-3.47113941695e-05
-2.56859173879e-05
0.0497996653239
-1.24874345965e-05
-2.66460001877e-05
-1.44344988103e-05
-2.64551886874e-05
7.20556484352e-05
0.0498494143414
0.000818978827849
2.64211948105e-06
-2.00590767666e-05
-5.77997141341e-06
-1.34687614391e-05
-3.43523903721e-05
-2.54686949459e-05
0.0117843041208
0.000101742419585
0.0118138551819
6.27341525074e-05
-4.93362484093e-05
-0.0117990437508
0.000148582752086
-0.000176721886611
2.27512878627e-05
-9.7292574186e-06
4.15479768493e-05
-5.34305958125e-05
0.0118093547267
0.0118406213162
5.04034121484e-05
-1.89703950735e-05
3.87684708553e-05
-8.46843804053e-05
-0.0118259575793
0.0499353838728
-2.62979273375e-05
-2.51902371667e-05
-1.03029767667e-05
-4.41148179439e-05
-0.00108325611562
2.74603878816e-05
0.00133665250878
-3.44960939478e-05
-7.10905569374e-05
-4.93807197857e-05
-5.83228073316e-05
0.0504548082081
-6.73004429334e-05
-0.00157515408193
-4.92566392727e-05
0.0118389883325
0.000171295169951
-0.00019720626239
-5.28526119439e-05
5.06432126019e-05
-0.0119023903224
0.000243599794418
0.0119309456453
-0.000269850368823
6.55002911265e-05
-3.57026869121e-05
4.10576390757e-05
-0.000105026996633
0.0118748319174
0.000124443702556
-9.98867784622e-05
0.00011969133153
-0.000167935051253
-0.0119377692763
0.0119616354703
0.000805820169412
-3.85432486792e-05
-3.80951265952e-05
-3.26788807712e-05
-4.49796836799e-05
9.24007136963e-05
0.0503364374112
-3.30364266341e-05
-3.86894482834e-05
-3.76703005086e-05
-3.37914420803e-05
0.000115668538962
-0.0502618016178
0.000758756910558
4.94876579413e-05
0.0118029047687
7.20627029533e-06
-0.0118027320055
0.0118389561719
-4.68780476984e-05
4.69785278288e-05
-0.0118223165718
3.3456647314e-05
0.0118286983064
-5.70468677145e-05
3.51675762238e-05
-1.46072478496e-05
-0.0118044277976
1.22073181747e-05
0.00116107294661
-7.32729614619e-05
-8.91007802123e-05
-6.78125587473e-05
-9.07074346305e-05
0.0505350855842
0.000242771628998
0.050436645607
-5.18612719671e-05
-4.06783474274e-05
-3.94163184539e-05
-5.12431993578e-05
0.000194465388136
-5.46295068071e-05
-6.74616365844e-05
-5.51295042809e-05
-7.09053685256e-05
0.0506157899117
0.000991118150289
0.000239111639823
4.55770086559e-05
0.0118724687981
4.66650263169e-05
-9.49120912563e-05
0.000106737157103
-0.0119355384911
9.02059891243e-05
0.0119579088834
1.8414153823e-05
-5.95369281495e-05
3.13492813833e-05
-2.47028716026e-05
0.0118631996103
2.49442054078e-05
-6.36900546146e-05
5.69458372736e-05
-4.04277698796e-05
-0.0119219702485
0.0119441857182
1.79106087898e-05
0.01186046201
1.85114771427e-05
-0.0118272653231
5.0300661224e-05
-0.011917214369
0.0119360755135
-5.73352248794e-05
1.31087359169e-05
0.00561693298881
-7.86801416903e-05
-7.33803305592e-05
-6.75198574918e-05
0.0106167210098
-0.00218325828907
-0.00468028955772
-0.00906694946836
0.0083565821035
0.00744576243816
-6.74139424278e-05
-4.90603841866e-05
-6.36831195425e-05
-0.00251454004609
-0.00744258053824
-0.0078553249742
-7.37435640524e-05
-6.37189876626e-05
-8.44157420976e-05
-0.00539131558567
0.0141151683814
-0.0101414438838
-0.00112888546653
0.00919689061585
-0.000979980739682
0.0128892563677
0.00263628534924
-0.00562524932561
0.00834619847768
-0.00648186748589
-0.00796483681624
-0.0048718763328
0.0125116292658
-0.00238944818576
-0.00210697301103
0.00783578822147
-0.00507336300643
-0.00486819215359
0.00623396955415
0.00112737219836
-0.00356405523662
-0.00767899831488
0.00021644240518
0.00175827087479
-0.00408826013008
-0.00584876033753
0.00602952984243
-0.00320296843781
-0.0070586869745
0.00148036819856
0.00797040020678
-4.30385784185e-05
-2.40992926643e-05
-2.27417166039e-05
-0.00600252046738
0.000285324479343
-0.00230972782428
-1.04179331765e-05
1.37882157029e-05
-2.1215632407e-06
0.00734541322211
-0.00312843613796
0.00604836444512
0.00897316110808
-0.00567603356893
-6.1675761339e-05
-3.0601190553e-05
-3.67730769484e-05
-0.00765659813554
0.00294514709622
-0.00329830690304
-1.55737355513e-05
6.91497992256e-06
-2.43057303037e-05
-0.00262412217966
0.0073632309906
0.00718708143445
-1.68776761558e-05
1.11363674113e-05
-2.20219708239e-05
-0.00257229012314
-0.00617715700388
0.00503999330528
-0.00492608153317
0.00158649878753
-0.000719339329883
-0.0066852400891
0.00289314529306
0.0021195406891
-0.0059714573513
0.00617302334807
-0.000160867409216
1.31589927205e-05
7.36646084215e-05
3.00803422845e-05
0.0174771543262
-0.00552650800946
0.0095964570723
-0.000981858939335
9.6287816258e-06
5.48264222078e-05
2.08493287958e-05
0.000749732850344
0.00533317164722
8.33136313933e-05
8.16641668846e-05
5.75396267195e-05
0.00936366312849
0.00199687306754
-0.00630550462052
-0.00126590930308
-0.00012352297334
0.00357635926752
-0.00724421151638
-0.00237285403134
0.00446597848869
0.00326801891947
-0.000790009272084
4.35522469176e-05
6.35125374215e-05
5.76423053791e-05
-0.000948543352617
-0.00901235329436
6.35059546424e-05
5.75065289459e-05
5.89744082232e-05
0.0131112142052
-0.000118958325049
0.0039176976384
-0.00186266767397
-0.00502442797361
-0.0048497934152
0.00624707741468
0.00574232110926
-0.00330854859848
-0.00407692248501
0.00292417282837
0.000491315829022
9.05180903065e-05
8.81708576572e-05
8.92032513822e-05
0.00246693601964
-0.00562692945562
-0.000404514227583
6.80978455324e-05
6.08760637702e-05
7.31686650295e-05
0.00019667383192
7.64448502927e-05
6.28438989222e-05
7.58551768584e-05
-0.00358039710674
0.00040210607305
0.00725710986259
-0.00612917887027
-0.00360509741628
0.0103216149954
0.00724620822928
-0.00560935683977
0.0105142683393
-0.00509284349876
0.0124374335317
5.51382123704e-05
6.09485961919e-06
4.18259233987e-06
-0.0124592906346
-1.34948025344e-06
-0.0124295286339
0.0123960326302
6.90936281872e-06
9.95645163166e-05
-7.58254895555e-05
-8.71569809658e-05
-0.0117671656246
-7.31177832203e-05
-0.01176006558
0.000122898669405
0.0117481413228
1.03669317092e-05
0.0124070903357
0.000107263922888
-0.0117800773437
9.90705149812e-06
-0.0124532644891
0.0124471601154
1.66846183981e-05
3.24302314167e-05
-0.0124625270938
-3.05410712652e-05
-0.0124579420803
0.0124362460203
5.54519456859e-05
-4.61356350468e-05
-0.0117764173358
0.0117619643753
-1.57593777822e-05
-9.80141405765e-05
8.80866883554e-05
-0.0118180572489
0.0124185494342
3.42053365857e-05
-0.0124713093908
-0.0117983102527
-0.0123976959313
6.51417479699e-05
8.59109701372e-05
-4.05883323181e-05
0.0123690327844
-4.16580383402e-05
0.0124173704723
6.79725928885e-05
-6.94441884319e-05
0.0117626124214
-0.000139973599426
-6.09315315546e-05
-0.000147324871845
0.000140332701381
0.0117796279251
-2.32988428199e-05
9.62297642483e-05
0.0123959673128
-0.00014917001446
0.0117657162832
-4.26616475517e-05
0.012492069062
-1.23437753321e-05
5.55772635246e-05
-0.0124978648094
-0.0124747198015
6.53983485204e-05
0.0124627856459
-2.86566738761e-06
7.04358896498e-05
-0.0118266144125
7.16762227478e-06
-0.011820629977
6.83275034759e-05
0.0118075981647
-0.0124838980117
7.87417233978e-05
0.0124838203511
5.72419440638e-05
-0.0118425565893
0.0125096717407
6.88720094071e-05
-4.00827787036e-05
-0.0125092361835
-8.95017240672e-05
-0.0125246895225
0.0125261632556
0.000108447304457
3.01749028015e-05
-0.0118222173125
0.0118072873038
5.80701774608e-05
-3.58310118308e-05
-0.011846654389
1.29017408691e-05
0.0125066614971
-0.0125223388228
9.06517666574e-05
-0.0118430611778
-0.000107449160482
-0.0124707254312
1.18796502892e-05
0.0124581734449
0.000124954134535
0.012445342707
8.20195731357e-05
-3.43854284003e-05
0.000115044844108
0.0117871836718
-8.22529123858e-06
0.0118012448855
8.17927034745e-05
0.0124311202196
9.92023462154e-05
0.0118021314379
9.19449795673e-05
-0.000136781945191
0.0124494088482
2.22614325342e-05
0.000156032315942
-0.0124132983452
0.000170295706983
0.0124012290074
-0.000157901546707
-4.74655097667e-05
0.000131785044599
-0.000158081703926
-1.57961430444e-05
-0.0118144774191
0.000120687780616
0.0118272724162
-0.000120833822049
0.000189749654058
0.0124436111583
0.000104614788486
-0.0124981215267
0.000131531795393
-1.00252010265e-05
0.0124890208619
-0.000109364789447
0.0125212565641
0.000129153509615
1.62258785962e-05
0.0118035260598
4.01928381431e-05
-5.89126979076e-05
0.0118079066084
2.71335723256e-05
0.012516667013
0.000149734096873
0.0118019926105
0.0124837184837
0.00016161555917
2.32791590932e-06
-0.000189770946165
-0.0125146045613
0.012517475992
0.000205526662983
5.67072678902e-06
-0.0118164827585
0.0118297808412
2.7972808201e-05
-7.0209218107e-05
3.52955904835e-05
0.0124835416023
0.000178113339467
-0.000250012285991
-0.0124384534377
-8.37192634124e-07
0.0124452074448
0.000264782820621
-2.08261778531e-05
0.0123898421862
0.000208612384827
-5.08198329613e-05
-0.000195679820689
-3.05255457487e-05
0.000187395991409
0.0118547943094
-0.000215215583472
-1.44249350631e-05
0.0118536372172
0.000138057412136
0.0123966176186
-4.36336947437e-05
-0.000243775528753
0.000228855673674
-2.9720291123e-05
0.0118762433024
0.000156824054821
-0.000292264665069
-2.06032911396e-05
0.0124849843307
0.000306903484051
-3.39448826097e-05
-0.0124452819178
0.000323749573889
0.0125288512032
-0.000323359007517
-3.35099333993e-05
-7.64468979824e-06
0.000218261922377
-0.000245198077606
-0.0119170942223
7.42857964725e-05
0.000216029242691
0.0119441202692
-0.000286224415485
-6.23355502838e-05
0.0001867280348
0.000342386115004
0.0125535598294
-1.29563165124e-05
-0.0124820463916
0.000261034022966
-3.5158946171e-05
0.0124946772447
-0.000226880564078
0.0125186217917
0.000241583056684
6.86862096986e-06
0.0118653685045
6.95900180676e-05
-0.000119809371926
0.0118997352256
8.02355602747e-05
0.0125303026524
0.000274749347228
0.0118879694477
0.000298447633818
-5.62333307491e-05
0.0125248021533
-0.0125566967525
-0.000334038846505
0.000338888445979
0.0126005328923
-0.0119301626902
0.000105072728285
0.0119561093323
8.63848495051e-05
-0.000145660362768
0.000102788046216
0.000309137709229
0.012580067583
-0.000157937169539
-0.0125624251318
-6.08457985232e-05
0.0125627488175
0.000170653196436
0.0125419350811
0.00013917957374
-0.0125445729054
4.94214996437e-05
1.06047274286e-05
0.0118028528517
6.25564069764e-05
0.0117976734173
-0.0117981734102
-1.18737333949e-06
0.0125406738527
-0.0125616034141
0.00015320400623
0.0118001306942
9.23727654791e-07
-0.000184724988563
0.0125680860248
-5.38064839781e-05
0.000194672548404
-0.0125423792422
0.00020856071815
0.0125483086662
4.08175808054e-05
1.84531103796e-05
5.84110947849e-05
-0.0118169976676
1.62940970627e-05
0.0118392210418
0.00021515519712
0.0125750973068
5.4620776594e-06
0.0125881406253
0.000195594516063
-3.9718706657e-05
-0.0125822726025
-0.000212502518127
-0.0126059062951
0.0126123675583
0.000202560387253
4.30747117998e-05
-0.011810518425
0.0118325902458