/*--------------------------------*- C++ -*----------------------------------*\
| =========                 |                                                 |
| \\      /  F ield         | OpenFOAM: The Open Source CFD Toolbox           |
|  \\    /   O peration     | Version:  v1906                                 |
|   \\  /    A nd           | Web:      www.OpenFOAM.com                      |
|    \\/     M anipulation  |                                                 |
\*---------------------------------------------------------------------------*/
FoamFile
{
    version     2.0;
    format      ascii;
    class       surfaceScalarField;
    location    "14";
    object      alphaPhi0.water;
}
// * * * * * * * * * * * * * * * * * * * * * * * * * * * * * * * * * * * * * //

dimensions      [0 3 -1 0 0 0 0];
oriented        oriented;


internalField   nonuniform List<scalar> 
92311
(
0.203481201077
-9.99195417592e-05
-0.00105961407492
-0.203157263906
0.000831047139908
-0.000100430160713
0.203678624779
-0.000700870765851
0.000608158336381
0.203486222951
-0.000165949232352
-0.00112294932348
-0.2031739771
0.000877609812292
-0.000162205877828
0.203691516244
-0.000699474937552
0.000556789579723
0.203507182704
-9.60047173038e-05
-3.91672731848e-05
-0.00110428070252
-0.203146230058
0.000837991858281
-7.7975989704e-05
-4.68762827629e-05
-1.53543855012e-05
-3.21639525393e-05
-4.04650968907e-05
0.203623214477
-0.000698969178211
0.00052656833129
-1.73545663267e-05
0.0510079679816
-2.79214449763e-05
-3.23780316442e-05
-2.83361780706e-05
-2.90900654292e-05
-0.000381625492483
-0.0509320747436
0.000327638920743
-0.0510666066314
0.051114000468
-8.34121885633e-06
4.13111646716e-06
-1.54115876663e-06
1.37259592772e-06
-0.000224356727518
0.000166117076991
1.04390450001e-05
-0.000853057424367
9.4007916832e-06
1.02939732378e-05
8.71877734061e-06
0.000164955279719
0.000675648556705
-4.86288726476e-07
4.32072107603e-05
-0.00139929488069
-0.000356721093789
-3.21291591661e-07
0.00129238097231
1.27475405055e-05
1.6549641719e-05
1.03196966217e-05
1.21309886766e-05
0.000443551593293
-1.4878038198e-27
0
0
6.21980872301e-28
6.79435637284e-29
-2.46309334067e-31
0
7.30038486754e-28
-1.5730101894e-05
-4.9811214078e-06
-8.40044057118e-06
-1.61084327781e-05
-0.000304933780886
0.000252502373233
3.53964225924e-05
0.00995786025359
-3.33469826668e-05
5.25569037222e-05
-0.0099884132544
0.00991768591929
-6.54785708019e-06
-4.84175271213e-06
-0.00991531917545
-2.41125913554e-05
5.47132382487e-05
0.000136476823824
-3.24593709125e-05
0.0511890305951
-1.79841606273e-05
-1.5513326862e-05
-4.98520486532e-06
-0.000172612686067
-3.53495476135e-05
0.0511510344349
-3.89949235967e-05
-2.53969679846e-05
-2.89117291124e-05
-0.0510404547562
0.000114368848028
-5.46973925406e-06
-1.42641653347e-05
0.00993151203035
-2.22208550394e-05
4.96056856688e-05
1.39663735185e-05
0.0127521503745
-1.4510386981e-05
-4.81627558371e-05
-0.0127350704495
0.0127417081583
2.13019514329e-05
-5.72022384711e-05
-0.012725756643
-0.000243237949739
0.203602034796
-0.00183950965199
0.00156283531011
-0.20308384056
0.203772978954
-6.33389569122e-05
-0.000293824479126
0.000266630182447
-6.46763616779e-05
0.203902860842
-0.000161872639089
9.8494177137e-05
-0.000292193923687
0.203654966448
-0.00197151392301
0.00161131997404
-0.203244086516
0.203876418319
-0.000149897187928
-0.000403441280627
0.000306873397294
-0.000105488215043
0.204058614949
-0.000246576540866
0.000107179481893
-0.000109337860421
-0.000133458893413
-0.000115330279018
-0.00198756872531
0.203675370682
0.00165157424467
-0.203179112653
-9.37658149853e-05
-0.00012323021947
-0.000213803383402
-8.97048390228e-05
-0.00014449463205
0.204084389591
-0.000297367523074
0.000258057621723
0.0510013417354
-2.06231496671e-05
-2.51065272742e-05
-3.3217002824e-05
-1.31638253391e-05
-0.000662495399983
-0.0509629502544
0.000606927946374
0.0512776345257
0.000112814432387
-4.55799726329e-05
-3.22813187624e-05
-5.52837700618e-05
-4.43873478123e-05
-0.000147013019355
-0.00053080294943
-1.99920715748e-07
-0.0013923841134
1.5721794006e-05
1.82494738539e-05
1.56709533039e-05
1.67768538395e-05
0.000482931746587
0
0
0
3.07086554193e-31
1.56445124102e-32
0
-3.9262814072e-30
0
0
0
0
3.76374146809e-09
4.40904380684e-30
0
-3.76374146809e-09
0.000531722109212
-2.97899870225e-05
-5.93948644228e-05
-4.42914215943e-05
-4.69585439387e-05
0.0510819711363
-0.000565240558866
-1.32407293376e-05
-2.99181809843e-05
-1.63929483429e-05
-3.150636316e-05
0.0510029988879
0.000439712252224
-0.0509350694065
1.53993932958e-06
1.80264877223e-05
0.0100838255513
-6.10173369193e-05
4.66796695121e-05
-0.0100882265269
-7.01955291922e-06
7.15769978054e-05
-0.0100406745657
-0.000118365593286
0.000113598859797
0.00999900489728
-1.50944916413e-06
0.0126961987122
-0.000125336319194
0.000108808825476
-0.012692334357
6.20089562222e-05
-5.99060147861e-05
-5.82751777118e-05
-5.53879465381e-05
-5.78929547911e-05
0.0513275302215
-9.41011703004e-05
0.0512360356277
-3.6590881751e-05
-3.84472458922e-05
-3.68105141457e-05
-3.84675752927e-05
8.86988846986e-05
-4.1056363961e-05
-4.0018945084e-05
-4.15562686753e-05
-4.22043633327e-05
0.0512703882138
4.8358649617e-05
1.88596872219e-05
-2.14160684948e-05
-5.46090485487e-05
0.01276556278
-1.5724628548e-05
5.51915914825e-05
-0.00983695774376
-1.89845795374e-05
0.00979802315815
5.38828180127e-05
2.45813285431e-05
-5.3919765845e-05
0.0127552862583
-0.012759066037
-3.64821978685e-05
0.0127596940987
-2.78221942866e-05
2.42481962115e-05
-0.0010713226397
9.33661269068e-06
4.84697710847e-06
6.40770537596e-06
0.000248794149158
6.24044823857e-06
-4.12734316979e-07
-3.87333527472e-07
1.4627219092e-05
1.49731036628e-05
1.50384308624e-05
1.43780299255e-05
-0.000648565487343
-9.46727466879e-05
0.00038440004328
-2.39264607933e-06
-2.21895027904e-06
1.98149130481e-06
2.88625155736e-06
1.8218799039e-06
-2.08671499541e-06
-2.15888997607e-06
-4.41765847751e-07
6.07865725451e-06
5.45493212558e-06
7.03291818966e-06
0.000375721698665
-0.000125617327028
-7.26770014428e-07
1.39793713822e-06
1.25727150131e-06
8.42924016315e-05
0.0127153152761
-9.18944130679e-05
-0.0127001458087
-0.0127021626839
-2.52384497999e-05
-7.41110034606e-05
0.0127033270019
6.58707514641e-05
-2.35169312264e-05
2.74291580558e-05
0.00992923557598
5.09484818215e-05
3.44151087971e-05
0.00997132187156
-0.0100112499458
-5.77414957959e-06
-0.0126899562938
7.80178166428e-05
0.00994210634941
3.02028735917e-06
0.0127211944579
-8.1263011794e-05
0.0127079924809
-8.71317491139e-06
-5.80457239357e-05
4.61543888888e-05
4.49134284362e-05
-0.0127263118799
0.0127247347358
-5.39468099445e-05
-2.07301888877e-05
1.24330768882e-05
5.19431265628e-05
-3.38484795388e-06
-0.00993408338279
0.00993477904986
8.12213702821e-07
0.0127084329735
3.17661843149e-05
2.11107168431e-06
-6.68025641029e-05
-0.0127139521127
-7.68402663685e-06
-2.13247032536e-05
0.0127207924344
1.33868328932e-05
3.09317576269e-05
0.0127269832675
-4.41942970061e-05
-2.4584831982e-05
-5.43282255009e-06
0.00993841432197
5.16948089446e-05
-4.22621253342e-06
0.00994061083802
2.11911927963e-07
1.83895462941e-05
0.00993753073754
-5.54199356491e-07
0.0127330480484
-3.16869046351e-05
-2.60764325595e-05
-0.0127404479724
0.012753216308
-1.85990271158e-05
-3.11946521052e-05
-0.00993920538367
0.00992693781431
6.22105047763e-05
-0.00992584516537
-8.85183709673e-07
0.00989721726637
-2.54345673399e-05
-1.64850304454e-05
1.23073605265e-05
-2.48954594364e-05
4.21834976049e-06
5.62312098959e-05
1.41717890752e-06
-2.4564997711e-05
-5.91762965312e-05
-0.0127237178587
0.0127402229256
2.65776629431e-05
1.05568445036e-05
-0.00991158315223
0.00988816354493
-0.00991220755349
0.00988592524095
2.1177651433e-05
2.03889019475e-05
-5.07695605565e-05
-0.012707765523
5.5068743397e-05
-1.18596488555e-05
-0.0099329101719
1.93797310166e-05
-0.0127028666604
2.65309692536e-05
-0.00993036411161
-2.34064998823e-07
0.000495559410548
5.23705987075e-06
9.37001597815e-06
6.83538809879e-06
4.60767283025e-06
-0.000710163726208
0.000450327304213
-0.000222554662794
-8.86461583629e-07
-8.13668140838e-07
1.02783761384e-06
1.04595151355e-06
-0.000561850830941
-4.60406502007e-07
1.57349942704e-06
-1.51473640894e-05
-7.86934222865e-06
0.000551347283709
-0.000442035318252
0.000512084490493
-1.16199273901e-10
5.28986309707e-06
6.13819071263e-06
3.76686999383e-06
-0.000783585035711
0.000695106561411
-1.43857891703e-06
-6.91727137843e-07
1.67969040819e-06
8.17735430672e-07
-6.0009823292e-07
-1.39734206621e-06
-5.74119834154e-07
-0.00090802131518
1.36866634608e-05
1.24062477353e-05
1.10369108658e-05
1.24904035537e-05
-0.000267750776623
7.41371931054e-10
-1.54786810248e-06
3.00472828487e-07
-1.15140421883e-06
-4.31539855771e-07
-6.95431055348e-07
0.000583920904619
7.23791586202e-06
5.75556857552e-06
8.95649394729e-06
9.36662190276e-06
-0.00107540464117
-0.000405921190359
2.44642968709e-07
-7.33171847874e-07
2.23861813303e-08
-2.19395985823e-07
1.49254988365e-05
1.10526059384e-05
1.2566397276e-05
-0.00132974715342
0.000488347443192
-2.08614489887e-07
2.04852382681e-08
-0.000163792700032
-0.0127016171847
-1.41164646315e-05
0.0127037268439
0.000153656819913
0.0127078291455
0.000171272847183
-0.000173782934439
-0.0127145400658
3.81993886926e-05
-8.08514948581e-05
0.0100642415807
6.93180331618e-05
-1.43621378717e-06
0.0100677600779
-0.0100745001937
-7.33632924797e-05
0.0127126325017
-0.000165213271105
-0.0127085637649
0.000161321202536
0.010052954148
-9.14547212575e-05
-0.000149734513473
0.012710330271
-2.91527179352e-05
0.000142270118877
-0.0127181085648
0.000136212545168
-0.00013659977238
0.0127319404794
4.96656889735e-05
-0.000103560061117
9.48072189111e-05
5.52533689361e-05
-0.0100368982324
-0.000116595296765
0.0100011245352
-0.000149885705335
0.000130792069781
0.0127248843698
-0.000107482552808
0.0100324365273
8.57241782087e-05
-5.60158423819e-05
-0.0100572976381
3.12272046685e-05
9.1620221652e-05
0.00998903287109
-5.5600767768e-05
-0.000115944875583
0.0127101036457
0.000103055556183
0.0127045633731
-4.42805013909e-06
-0.01270075079
3.13591961311e-05
-0.0100310968487
0.00999432226573
0.012719226775
-0.0100495615459
-3.91904216811e-05
0.0127645910581
-2.44940138703e-05
-3.03213287846e-05
0.00990801855617
6.32894486137e-05
0.00986566752662
1.4796906419e-07
-2.94503340669e-05
-5.15636616073e-05
0.012772478046
2.10420403976e-05
5.17570919259e-05
-2.98501020801e-05
0.00987753807747
6.31365923211e-05
0.0127769497001
-3.22413842983e-05
0.00983857762651
1.20464336324e-06
-3.6875700594e-05
0.0127762304935
-4.90948716795e-05
2.43558260152e-05
-0.0127863393163
3.74355412667e-05
0.0127879174985
-4.0295752869e-05
6.02007904846e-05
-2.33079282556e-05
5.56281764097e-05
4.34292232276e-05
-0.00981107665427
7.85814818535e-06
0.00978392443581
-3.93218042743e-05
2.39283024025e-05
0.0127770347683
5.97202177018e-06
-0.0127545599753
-4.13817481287e-05
-2.53086298058e-05
2.58283453766e-05
-5.14379345264e-05
2.67678773288e-05
1.28696738592e-05
0.00986577024285
0.00986186731571
2.34752995225e-05
-1.40965777349e-05
0.00984233871106
2.46721588021e-05
-4.63746691367e-05
0.0127613963193
0.00984915938123
0.0098211953861
-1.71314316985e-05
2.90410557006e-05
3.16375562514e-05
-2.00825488627e-05
0.00980433060147
3.08225664892e-05
-2.59497547158e-05
0.0127568441651
2.16324717881e-05
0.0127632374308
-4.45101201614e-05
4.18994803514e-05
-0.00983338471509
0.00981600805014
0.0127625094436
-0.00021979885857
-0.000162662934199
-0.000141617556561
-0.000154270948545
0.204670572554
-0.000188553207811
0.000175653545626
2.76396526197e-05
-5.01572753137e-05
-5.64819796229e-05
-5.21182608189e-05
-5.63558101482e-05
-4.54066042715e-05
0.0513407128319
1.20793432047e-05
-0.000543815355738
-3.66669991202e-07
9.42147983685e-06
9.44759841638e-06
6.63513184035e-06
0.000345018650186
-0.0011403054275
0
0
0
-3.1722402062e-30
-2.47808434857e-29
0
-1.57023567152e-30
-3.72992849922e-05
-3.40695902381e-05
-3.54412987111e-05
-3.656877149e-05
0.000127520496894
-0.000455920299157
0.0510934797367
-1.40886425338e-05
3.79247418816e-05
9.06648833007e-05
0.00994955250649
0.0512873607396
-4.5946046156e-05
-4.56143644289e-05
-4.64764459418e-05
-4.60798598813e-05
3.23797914258e-05
0.0513089851415
-4.43569447229e-05
-4.3511285842e-05
-4.51445458027e-05
-4.58083191316e-05
4.74743626532e-06
1.10580754632e-05
5.04993934331e-05
0.00975857843113
-1.77847716618e-05
4.98694892303e-05
-3.08781638908e-06
3.74622021935e-05
-1.68691887158e-05
0.0097754401887
2.64665979322e-05
0.00967204374397
3.04994672736e-06
4.00898369334e-05
1.85523442383e-05
-0.00970736219227
-1.38518242526e-05
0.0513381912811
-3.93751436129e-05
-3.7212471978e-05
-4.07906857286e-05
-3.44809164878e-05
8.87172882764e-05
4.74227549664e-05
-1.32317251858e-05
-2.99178519518e-05
-2.18010772098e-05
-2.12985414262e-05
-2.53129621329e-05
8.1527532481e-05
7.03531778596e-05
0.0513281204358
-4.32641318172e-05
-1.95133634332e-06
3.52613616346e-05
4.08581751609e-05
0.00964945736456
-3.87161509587e-05
-2.38797380322e-06
2.2513285618e-05
0.000114260815359
-0.00961839418013
0.00961405913278
-0.000114788426911
1.27755584295e-05
1.37755664023e-05
1.26982876086e-05
0.000524139679328
-0.00107274408807
-2.53429944727e-07
-0.00108748367998
-6.81169742078e-07
5.72841358884e-06
1.51946649154e-06
4.50383712491e-06
-0.000507858042573
-5.22505202595e-07
-0.000978471154954
2.90408702716e-06
-2.99146172289e-06
1.41545728567e-06
0.000381892351527
-0.000455577709695
-3.04035093041e-08
-7.47795559962e-08
8.0679341253e-07
7.02874533743e-07
-3.1489479185e-07
4.91081596542e-08
1.31399792346e-06
-7.62076125629e-08
-0.000694224207273
4.71068462787e-06
1.13991748256e-06
4.41724609141e-06
2.31160967017e-05
-1.70997494456e-07
-0.000291561151644
2.8973076366e-06
2.9803752439e-06
4.23690929296e-06
-0.000191956098906
-6.85875887296e-08
-0.000460977668771
-3.56909478973e-05
-0.0127379243983
-3.1491965752e-05
9.66313392623e-05
-0.000111206475731
0.0127476356914
-0.000105286574042
0.0127277352079
3.80401931661e-05
0.00995440633347
0.000123581226592
9.0978058617e-05
3.01095925497e-05
0.00991883190497
-0.000120553837251
0.000125236397959
0.00992410122871
0.0127373042199
-2.83329793942e-05
-0.0127764153345
-3.12641833913e-05
1.77688855847e-05
0.0127679421091
0.0127870633011
3.39856393006e-05
-3.78943486858e-05
3.50304460534e-05
-2.44957929357e-05
5.75078845808e-05
0.00972460185712
4.20256871756e-05
0.00975006036683
8.06824143448e-06
-3.3295466045e-05
0.0127752486683
2.12216553959e-05
1.48537502567e-06
0.00971913922592
-0.0127611175151
-4.3381207346e-05
2.1531118132e-05
0.0127546661763
-2.40654759775e-05
0.0127525229542
2.06144596085e-05
4.69125228313e-05
0.00978711072177
-1.28073065498e-05
3.79351914494e-05
0.00974154752946
1.97299836285e-05
0.00975168037434
0.0127468113632
1.8445180019e-05
0.0127448316619
-4.12948929189e-05
1.87455704673e-05
-1.31756255814e-05
-1.83899159185e-05
-0.0127384077344
0.0127349794662
1.73013770526e-05
4.76641778928e-05
-0.00971728747393
0.00968174471516
2.63973004179e-05
9.56589819564e-07
3.73695776124e-05
3.45155381576e-06
0.0127388802358
-1.18748647729e-05
9.93962170558e-06
1.68850592315e-05
-0.0127392613962
-4.74692867673e-05
1.48920388438e-05
0.0127462922009
-1.2107679546e-05
-1.70521389615e-05
0.012735240063
1.60531452425e-05
4.73203079284e-05
0.00965244295669
4.607945677e-05
6.52238762508e-05
3.73103126213e-05
0.00962841345854
-6.55689242035e-05
-1.09633605122e-05
0.00962798649608
6.7342793592e-05
0.0127435940796
1.11024356532e-05
0.0127548352687
-3.43450468674e-05
1.25744807565e-05
-1.44395088853e-05
-1.08822234037e-05
-0.0127523575052
0.012762955919
4.68882135488e-06
2.26922576994e-05
-0.00961814766574
0.000115128252741
0.0096163521528
9.08168381646e-05
2.77595279928e-05
-9.00194705133e-05
-1.60231613911e-05
0.0127643299003
9.15202554453e-05
9.08543580879e-06
-0.00043635445432
-0.0491848985045
0.0491511179189
0.00065696750065
-9.6422882994e-05
-7.50411616745e-05
-8.8573005852e-05
-8.29443558409e-05
0.000156474142413
-0.000721683810754
0.0497633118848
-7.99878308653e-05
-7.32046360635e-05
-8.6409865992e-05
-7.03733316878e-05
0.000267683881509
-0.0496483396451
0.000649258318787
-0.00114329985623
-0.0500053237564
0.0503069688305
0.000976649203435
-0.000111337065812
-0.000107702071472
-0.000128129904173
-0.000107686987443
0.000320167248856
-0.000804562264779
-8.83920620841e-05
-8.85494224866e-05
-8.48304449162e-05
-9.01603659715e-05
0.000248067266051
0.0505307087696
0.000670034444072
-0.0502920343558
1.6854317189e-06
-0.000346863647331
-0.000156102497331
0.000242052882997
0.000199873990296
2.72847116613e-06
3.62177644717e-06
1.81813911301e-06
3.43910974787e-06
2.30556665603e-05
-0.000231144069398
0.000125200929318
0.000240309856307
7.40770777544e-06
3.41025862465e-05
2.26687144376e-05
2.92441476653e-05
-0.000337090385227
1.30998006234e-06
-0.000104022291864
-0.000583659454399
-1.70380294422e-08
1.99047551294e-06
7.66071297853e-07
1.22280822936e-06
0.0006387748792
3.1642201874e-05
1.07834605159e-05
-0.000184875487101
0.00054198849987
-0.000533280158409
0.000103606853292
1.15119058839e-06
1.35089810215e-05
9.28093296361e-06
1.13586891032e-05
9.57547696187e-06
3.18581152523e-06
1.07093310904e-05
1.04740621787e-05
1.15084625734e-05
-0.000957319882924
-9.60648925933e-05
-7.07119113075e-10
0.000992944455473
1.44439423716e-09
-7.67696952862e-09
2.85326255946e-09
-1.40918111545e-07
-1.45786815767e-09
-8.03540587012e-08
-9.83488856094e-09
3.17145752636e-09
-6.16446933778e-07
-7.59230181377e-07
-8.91716775956e-07
-8.78394173126e-07
-1.27924992827e-06
2.25555321636e-07
1.08120622324e-06
8.86720957591e-08
4.98909683327e-29
-5.82787909613e-08
-2.90824563041e-07
-5.86558490082e-08
-1.90640856966e-07
-6.81697823777e-10
-2.62302837825e-08
-6.32245006095e-07
-1.2868664173e-06
-2.54264129905e-07
-4.50973651951e-07
1.16349538976e-06
0
0
0
0
0
-1.68566783748e-29
0
-4.46024056064e-08
-2.76518161815e-07
-1.42909553291e-08
-8.59789644447e-08
9.42885021737e-08
-1.40798656649e-09
8.91064031601e-05
-2.41029366868e-05
-2.58469999807e-05
-2.59939509375e-05
-1.81917100248e-05
0.0489782563047
0.00012021090484
8.17753881172e-05
-0.0491751730251
0.0490158569686
0.000284563525139
-2.99389690342e-05
-4.22203096305e-05
-3.13354668114e-05
-4.24648333056e-05
0.00013060512263
-0.0491959769456
4.00343422502e-05
2.89582489975e-05
-0.010750895545
0.000101208714972
0.0106750489516
-9.70899166469e-05
0.01071803151
0.000100224686741
1.64511825323e-05
5.98507738271e-05
-0.00010447030341
-0.010786173457
-4.19928410184e-05
-5.22727687599e-05
-3.69352236714e-05
-5.23342058937e-05
-0.000183426540075
0.0122478703912
0.0121881820298
0.0122045026685
0.0122323588007
7.35502034153e-05
0.000111220339765
1.58798196076e-05
6.79276245747e-05
-0.00011782389054
0.0106466820057
0.000476886262171
-5.83642959484e-05
-6.13675758202e-05
-5.49300836497e-05
-6.83901541367e-05
0.000141214366529
-0.049275319229
0.0494243443589
-4.94671509718e-05
-6.43467635761e-05
-6.26288083596e-05
-4.98208151118e-05
0.000142003200567
-0.0494253340606
0.000562086665002
0.0106960698283
-5.5907496417e-07
8.90804727938e-05
-0.0107638584505
9.2918180768e-05
0.0105884974309
4.54670614536e-06
7.6650745271e-05
-7.10014069968e-05
-0.0106551736185
6.30195727802e-05
0.000932755227242
-0.000103891818215
-0.000126586430033
-9.6228968239e-05
-0.000135858228391
0.0492000069188
-0.000178943693733
-0.000141922699688
-0.000185529868911
-0.00015606845485
2.44516133672e-05
3.58128059453e-05
4.16807706897e-05
4.19881197997e-05
0.0494412285401
-9.25224290701e-05
-7.47951277814e-05
-7.5679948914e-05
-9.17813101779e-05
0.000253402138662
0.0496844588798
0.000945042241681
-9.95045499337e-05
-0.0001210974468
-0.000128325211926
-9.66282682213e-05
0.000190531067793
9.85531264999e-05
0.0106247996557
0.000102555489772
0.0103532303004
-1.25294108329e-05
0.000192250255118
-0.0104616753332
0.00015401451164
-0.000170957026318
6.24317107056e-05
-1.25271289608e-06
8.32102844224e-05
-7.23363018321e-05
0.0105232239223
0.010266241711
7.61575116152e-05
-8.2868927288e-06
0.00014867316651
-9.85160248322e-05
-0.0103624232757
0.0500385167518
-0.000166413626878
-0.000127949773632
-0.000132339217346
-0.000152402393049
-0.001190484834
0.00027283183186
0.00136955660053
-0.000138938396942
-0.000127668887043
-0.000130509672988
-0.000145257012927
0.050716687094
0.000135224311192
-0.00163988301964
0.000211160404019
0.0102614392701
0.000174875185789
-0.00019836314316
-4.50635074725e-05
0.000239371622777
-0.0100569141573
0.000245195152018
0.00998080018614
-0.00027187323015
8.19917691789e-05
-1.38014628014e-05
0.00015072201926
-0.000110393955982
0.0101871149492
0.00011384382087
-2.24981734346e-05
0.000169901593934
-0.000158614516055
-0.0100243983861
0.00996825840446
0.000827204879951
-8.88041498615e-05
-0.000105869166075
-8.80974804407e-05
-9.71698083553e-05
0.000256087209492
0.0501851379325
-8.34464583407e-05
-8.55848230509e-05
-8.85381500812e-05
-8.5488917203e-05
0.000264815369831
-0.0499651025388
0.00068568110249
7.32033344755e-05
0.0104992643936
6.06248443579e-05
-0.010564629175
0.0102616851265
-6.34335453381e-06
0.000116702689565
-0.0103465743173
6.52861042088e-05
0.0102629300169
-6.1088656227e-06
8.75467973926e-05
-6.56945996044e-05
-0.0103336204491
7.32416453881e-05
0.00111089657644
-0.000112296204474
-0.00012923159167
-0.000122528213453
-0.000111049595044
0.0506931080334
0.00034795804263
0.0504325585006
-9.62756693827e-05
-9.28656810579e-05
-9.35391691607e-05
-9.0072449813e-05
0.000297735160799
-9.69453589003e-05
-8.80621666552e-05
-9.23095407216e-05
-9.57339971361e-05
0.0507036743185
0.000898955884953
0.000314097485069
0.000119531339122
0.0101893229368
6.67942502028e-05
-2.07074503534e-05
0.00015055319039
-0.0100418580753
8.38649565839e-05
0.00998462999528
6.78719339592e-05
-9.90758915464e-06
9.08349594462e-05
-6.29025297572e-05
0.0101989489386
6.3689061113e-05
-1.48783084335e-05
8.5636053126e-05
-6.21314634509e-05
-0.0100892625356
0.0100516337
9.06089825048e-05
0.01018687051
7.01174016573e-05
-0.0102481125651
7.49858762039e-05
-0.0100873856135
0.0100555322923
-1.3262657963e-05
6.49693268753e-05
0.000327403253013
-4.21942518682e-05
-3.8399395801e-05
-3.99932638021e-05
0.00044714206796
-0.00026401765179
-0.000294663098016
-2.55815332334e-07
0.000381734816346
0.000312184044698
-3.54058561294e-05
-1.80594013327e-05
-3.95177427561e-05
-0.00022371560367
-1.6678206662e-07
-1.78536541895e-08
-3.3769046334e-05
-7.44184020684e-06
-3.10784279158e-05
-0.000358716835303
0.000481335885652
-3.45890058452e-07
2.75020688324e-08
1.10935844328e-07
-6.30302276655e-07
1.39887668054e-07
3.00172959278e-07
-1.2098448637e-06
-1.24633442999e-06
-4.31327925931e-06
-6.60436967107e-08
1.57658113341e-09
5.15464489771e-08
-1.06831502666e-06
3.00392520724e-08
-3.62370266194e-06
-6.70315467584e-06
-1.33164791704e-07
-4.12920033387e-06
-1.57927784949e-06
1.58820325387e-06
-7.79697527699e-06
-5.65624555123e-06
4.38375490111e-08
-8.0848472395e-06
-6.15093298264e-07
-6.7303658197e-06
2.68321320603e-06
-9.74564483497e-06
-8.37091735977e-06
0.000176795946899
-4.58565834083e-06
5.99046172702e-07
-6.48441974073e-06
7.94216762288e-07
-3.23121219763e-05
-0.000204342109591
5.52996515868e-07
-1.64373935369e-05
-8.06645292298e-06
0.000295865401552
2.06389067875e-07
7.87533568103e-05
0.000211198774038
5.40488708361e-06
7.56580438183e-06
1.2759937174e-05
8.41826203094e-06
-0.000332808649711
-0.000157973696262
1.63518683404e-06
1.7503750033e-06
2.37894227565e-06
3.45460227281e-06
2.79171707055e-06
-0.000169636745393
0.000135013839708
1.01645779607e-05
6.01601980117e-06
6.992482995e-06
-2.8913143286e-07
-1.7039655397e-07
1.83027233313e-07
-3.27534793945e-07
-8.15187607669e-07
-4.18049492227e-07
-1.56088204295e-07
2.28200077742e-07
-9.44669427346e-07
-1.63186239562e-07
0.00026597303069
7.12226006179e-06
4.14807790009e-05
3.68092962454e-05
3.48862661465e-05
-4.85091210809e-05
-0.00030770686485
-0.000236229127398
3.6860835175e-06
1.64807411189e-05
1.67029547822e-05
2.16416892151e-05
3.85573746812e-06
0.000243807356766
2.97551829962e-05
2.14008944164e-05
2.6979336976e-05
-0.000347276354918
-3.45145821576e-06
-6.764057538e-07
2.44115700401e-06
-9.92919529087e-06
-2.26932489626e-06
-3.07506203883e-07
1.15746039202e-06
-7.7240525149e-06
5.59964647232e-05
2.64459680625e-07
4.80649316939e-06
5.03001047919e-06
4.05220229433e-06
-2.58730575114e-08
-0.000808855306095
6.30246009297e-06
5.17527618293e-06
5.28847431497e-06
0.000863229565173
-2.7925274669e-05
-6.86077190743e-08
9.20871283676e-08
-1.26496455289e-07
-1.36548729242e-07
-7.42519643959e-08
5.80610947907e-09
6.59617485217e-08
-1.51886970176e-07
0.000157647955425
2.55692736762e-06
1.83160280338e-05
1.74746339125e-05
1.59083963407e-05
-0.00055335638613
-0.000763664120608
3.54813562982e-07
9.91990745719e-06
1.14548270472e-05
1.15573976696e-05
1.89079738652e-06
1.59003511938e-05
1.41567122623e-05
1.4643536211e-05
-0.000741631435902
3.9207973828e-05
-1.75410992972e-07
-1.71598259594e-07
-6.69644929227e-08
-5.01499414715e-07
4.91705571583e-08
-2.27158518423e-07
2.69011618519e-07
-3.44339681647e-07
0.0122945236529
-1.83605796073e-05
8.66593216216e-06
7.07946207317e-06
-0.0123191231235
-3.11094032499e-06
-0.0122923107721
0.0122709548914
2.55545603878e-05
9.35136194489e-05
1.28756585484e-05
-8.83501384529e-05
-0.0108156105911
2.8538327693e-05
-0.0107692504841
0.000105730340049
0.0106948837676
1.79851749915e-05
0.0122736978621
9.7018366856e-05
-0.01083519629
2.2700049687e-05
-0.0123148047841
0.0123007244092
2.25231680235e-05
-2.45686357031e-05
-0.0123245923604
-3.76946571322e-05
-0.012309730266
0.0122970114265
6.61339431218e-05
3.49270291872e-05
-0.0107768412307
0.0107059526733
5.12073222636e-05
-9.53839969301e-05
9.31905410846e-05
-0.0108490802121
0.0122823808127
5.03580734149e-05
-0.0123312443959
-0.0108420720639
-0.012261372223
6.33153282975e-05
-5.64819212507e-05
-2.88330614985e-05
0.0122421803928
-4.52684780162e-05
0.0122774677139
8.09034783524e-05
4.00440363643e-05
0.0106362721855
-0.000120633502072
8.30171224897e-05
-0.000127022853726
0.000121844168167
0.0105706756532
-2.10709080579e-05
0.000107208882067
0.0122653548881
-0.00013203579232
0.0105601453822
-8.23571484246e-05
0.0123312129154
-7.43123961861e-05
0.000109572580966
-0.0123448899301
-0.0123178483016
9.90304682008e-05
0.0123116790539
7.21634632549e-05
8.77283725394e-05
-0.0108205844352
9.67421056153e-05
-0.0107333962513
7.71670816156e-05
0.0106646240894
-0.0123349999949
0.000128551346558
0.0123287399956
7.47351968063e-05
-0.0107874044375
0.0123490661778
0.000127251041913
-5.95085171948e-05
-0.0123593675985
-0.000147614556912
-0.012369765528
0.0123759528378
0.000152509576096
8.57684150573e-05
-0.0106927538677
0.0106244819742
4.95009398818e-05
-7.0402014571e-05
-0.0107085497584
6.36984288704e-05
0.0123521073629
-0.0123775782784
0.000131952342183
-0.0107463750292
-0.000144149503574
-0.0123211918965
-0.000135958438539
0.0123261985862
0.000180735324279
0.0122975409569
0.000119552503563
0.000124312902511
0.000112394984406
0.0105381669993
0.000108770458914
0.0105909371286
8.26697937818e-05
0.0122982261026
0.00015372993259
0.0105026220392
8.7948932989e-05
-0.000176910234356
0.0123346057027
-0.000148244207688
0.000215408729266
-0.0122971911835
0.000215074011556
0.0123248720647
-0.000173016642967
0.000136471381639
0.000129145730798
-0.000142481208824
0.000199247296647
-0.010421666871
0.000125154512751
0.0103111783873
-0.000133159980997
0.000252120819032
0.0123646479143
0.000103939618732
-0.0123500446184
0.00020071811319
-0.000121321875142
0.0123608190007
-0.000173212976773
0.0123789624204
0.000179451172284
9.23387880169e-05
0.01055517902
0.000109501477762
-7.49497591608e-05
0.01043694331
6.30618581516e-05
0.0123926696528
0.000206390563289
0.0104654988244
0.0123726125575
0.000234466221672
-0.000128011181839
-0.000267122352898
-0.0124084798085
0.0124397773525
0.000266088940356
0.000171625504534
-0.0103877320239
0.0102872229731
0.000112997423499
-8.5171902314e-05
6.77669165927e-05
0.0124043803529
0.000237053743686
-0.000297272730664
-0.0124078118595
-0.000254504831576
0.0124673900924
0.000328821942353
0.000168311766076
0.0123646668159
0.000256421726402
0.000127544790921
-0.00020781425335
0.000269566087253
0.000217549053724
0.0101436934994
-0.000242239307056
0.000206915033399
0.0102202266192
0.000145437081345
0.0124331844274
0.000165160677159
-0.000256779361076
0.000290865825169
0.000134289795959
0.0101073956201
0.000180515372478
-0.000323357282637
-0.00023260481517
0.0125634075657
0.000352557623607
0.000111997215367
-0.0125438812672
0.000348479772976
0.0126583996055
-0.00033066956756
0.00011075221027
0.000257929717711
0.000223956116853
-0.000251380815226
-0.0100185511995
0.000216496692834
0.0002061176236
0.00994971348559
-0.00028521500626
0.000113390850335
0.00019108550328
0.000368730880671
0.0126549669669
0.000108516925374
-0.0124445526909
0.0003316327811
-0.00021996625489
0.0124994156388
-0.000300718136188
0.0124739134316
0.000292793351761
0.000178134445716
0.0102051414342
0.000183110810724
-0.00013704899068
0.0100960052977
9.96499387491e-05
0.0125221411344
0.000317705188894
0.0101047549192
0.000352109295545
-0.000210591405841
0.012575565264
-0.0125841219818
-0.000359647432839
0.00034553883483
0.0126438509374
-0.0100258276396
0.000206352635991
0.00995462687846
0.000174230307904
-0.000144517815766
0.000105435468574
0.000337401025295
0.0126495209329
-0.000197276518332
-0.0124368859419
-7.71784867571e-05
0.0124563983273
0.000176373704149
0.012410201712
0.000172763181006
-0.0124025251662
9.2586285182e-05
6.05164448168e-05
0.0104171318464
6.15302639264e-05
0.0104846953745
-0.0105493606729
6.59981864978e-05
0.0124270586471
-0.0124269637596
0.000154906248648
0.0104082167931
6.35983232069e-05
-0.000224663373588
0.0124737228505
-7.93218041226e-05
0.000199737967769
-0.0124447559427
0.000250371685043
0.0124740137317
9.15097466961e-05
6.13477242714e-05
9.58075842586e-05
-0.0103392394631
5.95167366744e-05
0.0102641671348
0.000222392205921
0.0125030835803
6.05939299354e-05
0.0125015956915
0.00017933570244
-7.90761549664e-05
-0.0124832198343
-0.000199483864681
-0.0125230579424
0.0125514070266
0.000176749018747
9.12959891754e-05
-0.0103356384523
0.0102622862648