/*--------------------------------*- C++ -*----------------------------------*\
| =========                 |                                                 |
| \\      /  F ield         | OpenFOAM: The Open Source CFD Toolbox           |
|  \\    /   O peration     | Version:  v1906                                 |
|   \\  /    A nd           | Web:      www.OpenFOAM.com                      |
|    \\/     M anipulation  |                                                 |
\*---------------------------------------------------------------------------*/
FoamFile
{
    version     2.0;
    format      ascii;
    class       volScalarField;
    location    "14";
    object      alpha.water;
}
// * * * * * * * * * * * * * * * * * * * * * * * * * * * * * * * * * * * * * //

dimensions      [0 0 0 0 0 0 0];


internalField   nonuniform List<scalar> 
28582
(
0.99998020194
0.999970495491
0.99998722564
0.999986986993
0.999997102544
0.99999748939
0.999984695646
0.999985997562
0.0581777797576
0.0603016264081
6.72623262876e-45
0.999984612227
0.853234990512
0.848157677262
0.999985762225
0.999977724484
0.848294908278
0.997608116357
0.997178652978
0.999984596122
0.999982479384
0.99999314686
0.999991441563
0.999986680746
0.999991168032
0.999997033731
0.999998032311
0.999984702009
0.999984207665
0.0613252822271
-1.64010721431e-28
0
0.99998606271
0.999985350859
0.859170500404
0.857136427477
0.998313673302
0.999981535164
0.99997687062
0.999977703587
0.997571329959
0.839971380197
0.997165214926
0.99715336553
0.0591976525177
0.0610983680541
0.000305679840664
0.000305789988553
0.0596274456001
0.000191502360145
0.998101049842
0.998018085271
0.851167540013
0.853247326443
0.998098554542
0.850790983181
0.998037677854
0.997972781764
0.997957338954
0.849308365165
0.848759587248
0.997914361881
0.849279109062
0.998003962041
0.997741621643
0.997884990531
0.848693947791
0.848744271715
0.99781368683
0.848639066797
0.997850029196
0.997808382484
0.847283507069
0.846036116707
0.997683116362
0.848225282657
0.847833067456
0.997839676852
0.997100907535
0.843915578261
0.842909065898
0.997256015306
0.845578052578
0.997182606387
0.846181156968
0.056767346301
0.000141238128031
0.0553513143564
0.0564456316173
0.000130965061011
0.000141789898061
0.0620877571917
0.000359490829089
0.000376334473249
0.0630106474749
0.000356133008134
0.0623258800295
0.000307278392028
0.998150475633
0.998275061303
0.858995697404
0.859524158909
0.99806080762
0.998326940082
0.859442459066
0.998037267815
0.99780987658
0.858216620269
0.857885188075
0.997912935123
0.997963972906
0.858755737128
0.858604806231
0.856981733215
0.998214224309
0.998230851551
0.857254098235
0.998134500633
0.858270669953
0.997800663983
0.845638942692
0.843377240817
0.997583584957
0.843866075583
0.997816570908
0.840677643448
0.99760508751
0.997799523562
0.842121874524
0.83843422398
0.997810908076
0.997606343375
0.83928588912
0.99711902826
0.997093433158
0.841794946172
0.840771172253
0.838596535513
0.997196921326
0.83967092582
0.837335309054
0.836548886417
0.997157177896
0.99726076037
0.837935613804
0.997279214523
0.838745378776
0.999998711958
0.999979691828
0.063418327189
-9.56805059357e-28
0.999986829371
0.85430085325
0.999978075792
0.999978406293
0.838386836957
0.836485401495
0.837296620855
0.999979101883
0.999980301335
0.837521941821
0.83874530275
0.0578392497524
0.0639526334263
0.0646293872081
0.000279334421388
0.000314187539549
0.000241735620139
0.0650984830228
0.0650380272579
0.998056912053
0.998126597746
0.854865153867
0.851477997795
0.998072550451
0.852184753089
0.998073988569
0.997512141794
0.997763780534
0.836927326967
0.837467758173
0.997705548775
0.997582350908
0.836469862163
0.997170030442
0.997113403683
0.837632173988
0.836283357711
0.997256367031
0.836796512163
0.997000239777
0.997010672493
0.996519008561
0.837311539947
0.836548489507
0.996751028502
0.836987229609
0.996793948526
0.996450787877
0.99643351529
0.837129208311
0.838070286838
0.996497205979
0.837097384171
0.996438439963
0.996489809316
0.99667971253
0.837618274512
0.838299885556
0.99660612036
0.837204350983
0.996510539192
0.999979254446
0.999982882926
0.999982411412
0.999991053528
0.0431136728091
0.0487122879063
0.0448479442949
0.0488378574141
0.0475443491454
1.65392899898e-07
1.48527772117e-05
9.15353315226e-07
8.24076633106e-06
-3.99022726257e-27
6.4582477469e-07
0.999989695644
0.999992068963
0.898656166132
0.898592284842
1
0.89874846674
0.99998788228
0.999985886612
0.897154087129
0.888541767744
0.999979314141
0.999978850995
0.999973366385
0.897105511109
0.893932700026
0.888244511099
0.883441333803
0.999966048259
0.999959357711
0.889488864981
0.862127826621
0.879526198359
0.862945965184
0.999981489135
0.999987809747
0.886900048017
0.882455174683
0.882373213845
0.999980694159
0.999986531508
0.999985930276
0.879201683378
0.864766185121
0.879632205294
0.868706005435
0.879250594317
0.869019970704
0.0407818762085
0.0404225870654
0.0424762439234
1.44315663603e-05
9.83098146461e-05
4.49814249765e-06
3.75883412453e-05
0.000296082340163
0.000634388310022
0.000305315429823
0.000691779919883
0.0411500900083
0.0428799843175
0.0456739331437
0.044467049267
0.0466798392805
4.89959631957e-05
0.000129473730434
7.92390780767e-05
0.000143962615318
0.0515541013259
0.0492176770425
0.0517515619738
0.000294489202117
0.000688194505739
0.00024687122843
0.000503857085342
0.0466593558134
0.0461577515324
4.54357709911e-05
4.83607353633e-05
4.86910836698e-05
0.0513856941248
0.0480775346043
0.0504713587204
0.000100629050734
0.00020994848282
5.96695837135e-05
9.15304439544e-05
0.999160560684
0.998874410918
0.898598942238
0.899030396195
0.998893854805
0.898991945059
0.999136464245
0.99914187978
0.998841873764
0.899063044976
0.898428510375
0.998877436573
0.999099151988
0.898995711224
0.998750258381
0.998698247655
0.899202673785
0.899043481465
0.998761452422
0.998688320499
0.89953423261
0.998830696171
0.998652425141
0.896461579896
0.893994127855
0.998916845143
0.998545964112
0.893609914268
0.998662406574
0.998342796537
0.89118980825
0.888191490827
0.998406231865
0.998624142286
0.890831152376
0.998343961876
0.998556594729
0.896708321738
0.893729337063
0.998525041185
0.998397659273
0.893060692143
0.998337598209
0.998568541601
0.895716599739
0.889146499337
0.998523028399
0.998327878528
0.891465611094
0.998225079175
0.998241223028
0.890898253499
0.887492998385
0.998276757715
0.998196329614
0.890037852053
0.998224849349
0.998174542418
0.885951433134
0.885750692761
0.998228576232
0.998188032575
0.888303476176
0.998365098201
0.998684802296
0.882656626638
0.88441238535
0.998647467665
0.998381362818
0.87836064452
0.998306409997
0.998353680654
0.872802107998
0.86043679697
0.998538649229
0.869635448378
0.998163757077
0.99824079795
0.998201953641
0.881920260456
0.875142262339
0.998273288343
0.998180579608
0.876793866033
0.998174138878
0.998061600534
0.861936695228
0.869035289412
0.998132067721
0.869755975872
0.998045912738
0.9982431015
0.998249073332
0.886119393785
0.886079341558
0.998232471912
0.998254886716
0.885443120612
0.998256645148
0.998261182473
0.884488231465
0.882137399332
0.998239387345
0.99830365773
0.883891471104
0.998319313257
0.998431976724
0.88211759148
0.883915374388
0.998401349206
0.998320510218
0.883786338054
0.99846723873
0.998342603365
0.875418483254
0.879161462114
0.998353798642
0.998406661056
0.87587284955
0.99845993184
0.99826644916
0.870225250357
0.866490767433
0.998331436365
0.871176122046
0.998425717479
0.998671213652
0.998589175217
0.879324841956
0.8765255261
0.998543990209
0.998748680251
0.876134000783
0.998678603565
0.998810025287
0.867835798012
0.872539548056
0.998806897937
0.871964885026
0.998671836506
0.998762732708
0.998571968899
0.876298468373
0.878596673046
0.9987729988
0.99854107349
0.87554338155
0.998957161756
0.872607223497
0.998900610088
0.999974543505
0.999981093695
0.999993460929
0.999996476546
0.999994974935
0.999985421424
0.999991530444
0.999990407117
0.999992297822
0.99999610592
0.999995408931
0.999988311318
0.999902418588
0.999991127375
0.999976819895
0.99993052778
0.999944619242
0.999981774708
0.999977017808
0.999953726511
0.999985047642
0.999947164366
0.999936447575
0.999975082569
0.999991068206
0.999992663375
0.999991522424
0.999986491984
0.999979212023
0.999974205017
0.99998012613
0.999990476969
0.999994014681
0.999996048231
0.99999665793
0.999991230319
0.99998864771
0.999974443521
0.999976779563
0.999989370785
0.999997826141
0.999998298641
0.999997734658
0.999989030152
0.999997635485
0.999998296278
0.999997065881
0.999988256181
0.999894736849
0.999995414025
0.999963032115
0.999852630095
0.999894743629
0.999909860623
0.999907687997
0.999952765388
0.999819600823
0.999964165095
0.999980288499
0.999922206493
0.999918570621
0.999961991328
0.999954068247
0.999950030814
0.999969759957
0.999992140687
0.999992193256
0.99997931641
0.999964612622
0.999974242395
0.999986436872
0.999985749348
0.999990272486
0.999990886678
0.999992888713
0.999995560935
0.999996784138
0.999996692162
0.999995818419
0.999993908438
0.999996205897
0.999998708703
0.999997867624
0.999993208895
0.99990415447
1.00000727745
0.999991847301
0.999802858664
0.999830280544
0.999937302967
0.999946287575
0.999969712743
0.99990640486
1.00000819876
1.00000201762
0.999951586722
0.999900757595
0.999938335338
0.99997568658
0.999984577834
0.999989760554
0.999996617159
0.999998260396
0.999998760727
0.999998576197
0.999998305881
0.999997455611
0.999997872715
0.999998144206
0.999997624043
0.999998409615
0.999999732307
1.00000007154
0.999999911142
0.99999949452
0.999998728095
0.999998993884
0.999997644822
0.999998891739
0.999999772576
0.999999927778
0.999999909084
0.999999667303
0.999999918221
0.999998761255
0.999998512974
0.999998335199
0.999929978599
1.00001637473
1.00001312932
0.999946454709
0.999800129047
0.999899348774
0.999970327553
0.999958538583
0.999958236227
0.999967945101
0.999970075331
0.999968604981
0.999966806264
0.999961711737
0.99996522216
0.999970065452
0.999954870277
0.999979642787
0.999975358829
0.999962177677
0.999946057862
0.999959667802
0.999977522238
0.999978608896
0.999973603122
0.999962368849
0.999947691583
0.99997729466
0.999973386525
0.999976365598
0.999990584041
0.999992824696
0.999983639674
0.999963581067
0.999943891665
0.999947260812
0.999986306913
0.999991529221
0.999990233623
0.999981293285
0.999952927594
0.999941452231
0.999954839464
0.999971890002
0.999968839808
0.999973042346
0.0594043074791
0.0621320008423
0.0660581219426
0.066031320754
0.0641782043944
0.0644371221278
0.0654431000228
0.0675055372793
0.0538937210561
0.0585563457435
0.0613632736726
0.0641062582705
0.0678091917231
0.0636775815649
0.0646748414743
0.0652883833983
0.065770650988
0.065012984538
0.0534667958372
0.058825534195
0.0619027106427
0.0621965813334
0.0613605935384
0.0612139328928
0.0625360324856
0.0649782015665
0.0663108110175
0.0658177889768
0.0558922009879
0.0576234778218
0.0577683332462
0.057860831564
0.0592623100279
0.0617380148319
0.0643726082198
0.0660976928132
0.0656779743545
0.0573714588542
0.0584755510938
0.0586025260483
0.0621394105529
0.0645583677125
0.0655234040687
0.0651808927125
0.0650364323384
0.0650509311638
0.0646436751178
-2.05452682583e-24
3.45702333041e-05
6.77211573955e-05
7.7441149172e-05
1.35267436207e-05
5.72599371651e-07
4.03287875349e-07
-6.96547612528e-29
-1.61582379645e-27
2.49995153962e-05
5.72037209293e-05
6.79524074471e-05
6.8501385264e-05
1.16975951404e-05
7.61417969031e-24
5.88627624076e-05
-1.97747865188e-25
-4.78194593477e-26
-6.98271790243e-26
2.68266664241e-05
5.48610502282e-05
-1.41805432259e-25
-4.57314801145e-24
-8.86930160213e-27
-1.04559167444e-28
-1.53716377843e-26
4.2386345612e-05
-5.49497728693e-25
-2.05922032256e-24
3.5296503176e-05
-2.59445791053e-30
-1.9463476781e-29
-3.02520905212e-28
-4.29902466463e-27
-3.24460084558e-25
-4.04162980115e-24
-6.17341290605e-25
-1.31991601234e-24
3.5711100157e-05
-3.76807310837e-30
-3.02321455159e-27
3.43231729659e-05
-1.27078820749e-26
-4.06828346462e-26
-2.23191607956e-25
3.67377234467e-05
-8.74039059622e-28
-4.76882734527e-26
3.75572157891e-05
0.999966925719
0.999977149091
0.999983602627
0.999821585254
0.99998095422
0.999833963206
0.999941200098
0.999994775393
0.99996672115
0.999944545953
0.999994401642
0.999994871118
0.999982953831
0.999984668917
0.999985187541
0.999975238708
0.999983366689
0.999965037701
0.999971078909
0.999985099523
0.999964156571
0.999930994036
0.999964854898
0.999932688012
0.999934738903
0.999930889943
0.99993111004
0.999930962633
0.999977964851
0.999820017478
0.999952444597
0.999861904343
0.999973481534
0.999764466357
0.999948033661
0.999994817442
0.999989192962
0.999992545407
0.99999436289
0.999998768843
0.999992653189
0.999995848216
0.999887312501
0.999959545998
0.999956326508
0.999733576768
0.999929004759
0.999888133683
0.99995584337
0.999984466148
0.999931256605
0.999938041098
0.999984658267
0.999994119648
0.999985716566
0.999999030762
0.999989845332
0.999917319525
0.999996232042
0.999954434654
1.00001414858
0.999947254962
1.00002101481
1.00000675108
1.00000488876
1.00000624242
1.00004820036
1.00003465652
1.00006437702
1.00004934046
0.999992466488
0.999942374454
0.999989398749
0.999970805435
1
0.999976655861
0.99999303136
1.0000103183
0.999997038946
0.999998950664
1.00001849768
1.00002319249
0.999998789248
1.00000019646
0.999638757488
0.999803041553
0.833350515245
0.826633601578
0.999998413947
0.999960024591
0.999999741369
0.832318694918
0.826962260295
0.827155262769
0.823420835702
1.00002291114
1.00000909174
1.00001303718
0.826509148352
0.831911268612
0.822000813554
0.825017856374
0.999999706448
1.00000836563
0.999999284066
0.834600368495
0.838607236319
0.82615405777
0.832204034777
0.999842482445
0.999970004315
0.999913374244
0.840801726312
0.848978201188
0.834762004196
0.840712232559
0.999822523289
0.999879197845
0.999885445199
0.849528312832
0.845826353547
0.840655424434
0.840187637949
0.999967500034
0.999920257251
0.999969094035
0.842823440423
0.836400643924
0.839501910722
0.837773065849
0.99997050668
0.999980117406
0.999979507483
0.83506012905
0.835718712706
0.837232803005
0.834024022979
0.999774658029
0.999968087205
0.999922636354
0.845191415887
0.824498062673
0.839466949864
0.820534566789
0.999958613846
0.999957905175
0.851936641607
0.831862641816
0.857100398964
0.841300210776
0.999960303571
0.999957894956
0.999959514081
0.830048500315
0.826919248164
0.838189888752
0.831437071178
0.999968297244
0.999953804136
0.999944420669
0.826678973467
0.820939962637
0.829272855652
0.824039559653
0.999969859728
0.999935739801
0.999939261956
0.819973972421
0.821925068943
0.823816811734
0.828606862714
0.999967032224
0.999948763162
0.999957508961
0.824016387155
0.832721526058
0.831237801539
0.839046718733
0.99996296909
0.999972110207
0.999976285916
0.83647498486
0.840655194695
0.840942201469
0.842452877422
0.999963444013
0.999978825066
0.999978699714
0.840777630861
0.840694959905
0.84130990386
0.839420320201
0.999968463354
0.99998047961
0.999980775083
0.840052510417
0.837733822177
0.839875867984
0.840348179427
0.999968887847
0.999979609364
0.999977410851
0.837240660171
0.831967742779
0.839604667122
0.833717133123
0.999944038954
0.999965109899
0.999969366441
0.837399225032
0.8225175721
0.83902604685
0.824923800043
0.99997684723
0.999984250545
0.999981130994
0.859333866544
0.844449456789
0.864997824575
0.853783034559
0.999969657552
0.999975639108
0.99997180622
0.840866733746
0.834069788008
0.850220769837
0.845291607568
0.999946798366
0.999962592083
0.999956938231
0.832032830392
0.827488482861
0.844530731526
0.844706131644
0.999948628286
0.999955971143
0.999959681755
0.827755450857
0.83164571221
0.845202982514
0.844449021059
0.999972510774
0.99997118
0.999977083324
0.834070420409
0.841324896636
0.844416288866
0.844955240134
0.99998089694
0.999983182529
0.999980011576
0.841681245492
0.841592417261
0.845039813277
0.844220084353
0.999978078326
0.999979861797
0.99997643408
0.841154328186
0.841290036768
0.844023475883
0.844134003419
0.999969395571
0.999971522702
0.999964412044
0.841337045768
0.840625608684
0.843434770028
0.83891060601
0.999953670755
0.999954452158
0.999949046883
0.839700754693
0.834155575723
0.837480976235
0.835827561031
0.999962486693
0.999950441335
0.99996923424
0.839235552378
0.827043721676
0.841214043871
0.830456991311
0.865879855674
0.855572760248
0.999973968764
0.99997694068
0.852760370293
0.849385800541
0.857752713696
0.999973032065
0.99997561452
0.999976333401
0.848917102409
0.849356584604
0.85822633258
0.856815268646
0.999983134706
0.999979029082
0.999986450029
0.84920105706
0.846822369158
0.855329053946
0.850673012727
0.999993790315
0.999992855704
0.999994181885
0.846011335656
0.845423075992
0.84990839771
0.849583783662
0.999990563105
0.999994096395
0.999989889079
0.845729634431
0.845422443911
0.849463258241
0.846112789198
0.99997531245
0.999981368199
0.999967699319
0.844354542759
0.842159585823
0.843903461509
0.839783677109
0.999951807274
0.999953506192
0.999946919076
0.841863478639
0.839854252467
0.839945313508
0.840312517391
0.999943966357
0.999945381166
0.999946908318
0.839027147673
0.837082270179
0.84050240017
0.837912389715
0.999971478708
0.999953549877
0.999979846589
0.842712541381
0.832135770689
0.844176349208
0.833564546925
0.999989278434
0.999989679443
0.855036996641
0.850610997122
0.848226499279
0.999990818574
0.999990754452
0.999991907467
0.849895264218
0.849914611784
0.848271690493
0.84781930973
0.999986262802
0.999991502159
0.999989987439
0.850943597121
0.845923979355
0.848489729024
0.841315426115
0.999969630317
0.999986317916
0.999979223718
0.843475945909
0.838521773502
0.839030317617
0.836191812134
0.999941267757
0.999967008027
0.999955952254
0.838640107181
0.839552885169
0.836389322814
0.837464125933
0.999946366933
0.999953039073
0.999955042117
0.840085773937
0.837483250491
0.83870102879
0.835566343562
0.999982334488
0.999960987026
0.999984993762
0.843836562544
0.833850303191
0.84179073737
0.833502266597
0.999975142549
0.836361203849
0.999968749589
0.836549541228
0.837216760621
0.999970181297
0.838148936294
0.835094558449
0.999987615104
0.84123962704
0.833451102562
0.00048629254137
0.000418152356282
0.000631568126764
0.000601613332147
0.0582147694943
0.0596579350091
0.00056420204705
0.000510330940935
0.00098579255062
0.000961995485624
0.0607779592032
0.0602004050521
0.0613032121634
0.000691624207354
0.000887530435333
0.00126002226248
0.00154285251496
0.0640204544704
0.0632879995364
0.065343189732
0.00135901033244
0.00089123924478
0.00157634919382
0.00115740765184
0.0669838166786
0.0678644054822
0.0677036095887
0.000468144523413
0.00030750899491
0.000813428485436
0.000806398847375
0.0645579199559
0.0664295837863
0.0650288566567
0.000225830175903
0.000258098769411
0.000513079063395
0.000410929552355
0.0643113730182
0.0646145812271
0.0646843978273
0.000382145507656
0.000440124840153
0.00046882360825
0.000431113806179
0.0648591476602
0.0648462653358
0.0651218207003
0.000436791116687
0.000396697932603
0.000390201883789
0.000325471149163
0.065855194379
0.0654239576659
0.0657473352183
0.000269688927735
0.000143406850183
0.000197723692618
0.000123003829898
0.0731078681913
0.0653118050321
0.0712205180306
0.000157802570938
0.000302348063718
0.000153932082689
0.000505564878604
0.0562108100328
0.053797522094
0.0565530505775
0.00114156316142
0.00125488279723
0.0010454921081
0.00103703802517
0.0602309789838
0.0592241260006
0.0610180333144
0.00128456787193
0.00123492007652
0.000853202665189
0.000895303722847
0.0622058501003
0.0623310070553
0.063141836997
0.00136585209565
0.00150090763655
0.000992668077683
0.00104348102675
0.0667815049661
0.0638683440887
0.0650654776446
0.00109736432398
0.000732594322786
0.000850510305478
0.000671735276613
0.0665918020739
0.0650327402851
0.0636780114359
0.000478621704378
0.000675431698635
0.000469322011501
0.00054307531254
0.0635534160201
0.061572382333
0.0619373807088
0.00140692792427
0.000837442978929
0.00130881816108
0.00102300085606
0.0650799660468
0.0639141078594
0.0650153879669
0.000389139353009
0.000363006270197
0.000382056230801
0.00023896370924
0.0656095768362
0.0655306368472
0.0659473146319
0.000339922365721
0.000294230751248
0.000229608722858
0.000225901313219
0.0660153757763
0.0661010886957
0.0664346416075
0.00020527221805
0.000135943577158
0.000194185571039
0.000156867025053
0.0710591637709
0.065342051192
0.0708601951127
0.000166804093596
0.000465591428578
0.000189203101691
0.0004094781632
0.0561573940356
0.0525792845342
0.0550554804441
0.000775356205252
0.00081513906536
0.000533396897261
0.000695179875885
0.0606150477374
0.0575131167293
0.0590098731943
0.000492469828512
0.000552184356011
0.000425862778931
0.00046162544419
0.0624369094031
0.0598893736175
0.0600508306757
0.000620239494709
0.000636182224786
0.000501794154154
0.000471443586477
0.0617499583104
0.0596271921101
0.0590087403887
0.000595298671309
0.00053214456294
0.000427089670876
0.00038501723131
0.0609099631488
0.0587711278854
0.0590819633359
0.000485775066913
0.000443955922432
0.000364057543042
0.000337077924715
0.0620115452635
0.0599461714845
0.0609843463146
0.000397170865494
0.0004343672826
0.000278012059612
0.000384755035179
0.0635864924888
0.0614161370445
0.0622857253021
0.000892807287848
0.000692837525034
0.00105433628955
0.00118268283994
0.0657607734436
0.0643097065808
0.0656774784333
0.000250111518019
0.000184504997254
0.000409084929541
0.000154644891651
0.0668640350386
0.0664531279377
0.0670081771708
0.00018357095957
0.000174188903818
0.000156270384776
0.000161126772819
0.0707169409565
0.0659733982768
0.0704383689435
0.000226267731044
0.000455684924662
0.000232550230527
0.000526925444092
0.0569798374512
0.055092403363
0.000300179074203
0.000319324291962
0.000177198001056
0.0578254208159
0.05590146258
0.0566111251542
0.000336396033338
0.000305277043355
0.000191934079525
0.000194779320118
0.0576490852655
0.0570860570717
0.0574394484733
0.000279146949761
0.000258764305759
0.000195085223044
0.000200346665369
0.0584833675312
0.0577449889077
0.0583237174532
0.000255149532876
0.000254538045764
0.000213614609441
0.000251863028624
0.0602500017839
0.0591500455769
0.0602420599769
0.000240183898295
0.000294680389111
0.000267541167191
0.000245001004537
0.0630489502286
0.0618016572754
0.063207596148
0.000305151972307
0.000332441051197
0.000245793712651
0.000272393658239
0.0655025953372
0.0643822633325
0.0652464389293
0.000296840831088
0.00023962925631
0.000277561525405
0.000281991677297
0.0668112332049
0.0657129553074
0.0667157095993
0.000184595750059
0.000183937050823
0.000234381030325
0.000243767684188
0.0699290288873
0.065389262402
0.0693974334129
0.000240745088739
0.000547188754431
0.000247697676853
0.000528034704051
0.0580692375567
0.0587956079845
0.0001525756904
0.000155140151251
0.00014939458233
0.000140854066156
0.0588059527432
0.0592843665708
0.059676738738
0.00016245135144
0.000327411414958
0.000138357030554
0.00034749727335
0.06007369427
0.0592045805487
0.0610130410196
0.000698640819704
0.000453717038798
0.00101540595798
0.00050675339722
0.0635083297576
0.0629108137069
0.0640773171613
0.000279478800454
0.000313386358021
0.000242001202523
0.000276379908108
0.0652872376282
0.0648590621903
0.0653597724295
0.000305571830217
0.000301874303661
0.00027294098815
0.000272594619649
0.0665968040961
0.0652465479349
0.0664128101799
0.000237491853622
0.000256481741833
0.00021114491942
0.000244599317214
0.068799500801
0.0650337929436
0.0683567102068
0.000271901407111
0.000535682006703
0.000300580515547
0.000547487389395
0.0644222747142
0.000271643399142
0.0652504171636
0.00025732544071
0.000248756087963
0.000196516371866
0.000181246090002
0.0661346461113
0.000188757133924
0.00021121382212
0.000141873641008
0.000139593710691
0.0678976352785
0.000285260531481
0.000553253804512
0.000202606948452
0.000580955305236
0.998090640612
0.998141438408
0.833933606925
0.829708444899
0.99784875616
0.829735801183
0.998366400017
0.997783753324
0.997586309555
0.828378770441
0.826332691641
0.997708479774
0.99760441115
0.827355800977
0.997469113813
0.997908948576
0.830710705127
0.829429229128
0.997665521232
0.828540972686
0.99764354601
0.997230775782
0.997327886488
0.829313955487
0.825242133631
0.997185797924
0.827230130777
0.997382911835
0.997604454525
0.997580992427
0.828758484465
0.826913891019
0.99767687342
0.997550061403
0.828060545594
0.99749058827
0.997308050976
0.823598745025
0.825850397048
0.997384751483
0.997452583955
0.826341588369
0.99727992452
0.997356026427
0.82714510906
0.824205884325
0.997219146607
0.824718907299
0.997400271586
0.997285075597
0.997276278249
0.829110279325
0.829438809168
0.997218190593
0.826726142346
0.997393885669
0.997351308236
0.997187767104
0.822492952643
0.82230985268
0.997346621213
0.99716417604
0.823135891001
0.997331189638
0.997054689163
0.827117644808
0.823558844767
0.997215392051
0.997144495767
0.825017274227
0.996305484754
0.996885944094
0.83637483162
0.831504976689
0.99691361791
0.833118422926
0.996227392647
0.995838818595
0.995555172465
0.837317443546
0.835693624803
0.995684906206
0.834176137711
0.995673854124
0.996458894352
0.996798584877
0.828646896032
0.827412264231
0.99688643211
0.996421182072
0.829934392806
0.996217500418
0.995991666157
0.83352011853
0.829127905335
0.996142261817
0.996116102852
0.831456321528
0.995855228164
0.995593307316
0.843589855315
0.837841832095
0.995678232504
0.84036081702
0.99588963734
0.996400218499
0.997321060269
0.846263777202
0.844935331105
0.997140277649
0.842658038181
0.996547891037
0.996292816862
0.996008505693
0.835783555385
0.836915830085
0.996143457205
0.996219081883
0.837752443509
0.996704720997
0.997230521397
0.84216583874
0.839007676672
0.997287118156
0.996706931177
0.839649080894
0.998158089097
0.997902625935
0.849367908599
0.845577074568
0.997753696386
0.845572479131
0.998235882347
0.998327351131
0.998350029242
0.848236450327
0.842678512827
0.998304416269
0.844529451836
0.998380050386
0.998325913919
0.997685925398
0.843176509302
0.840850239452
0.997853900666
0.99806939587
0.84375806907
0.998607871293
0.99870734586
0.841768475723
0.840485750906
0.998617137558
0.998455914229
0.84316879691
0.998186438123
0.998275513602
0.839820401625
0.840463584752
0.998240048607
0.838188853772
0.998179210718
0.998087885348
0.99799204384
0.83787182704
0.836020358454
0.998046805645
0.836944611163
0.998042720488
0.998504679765
0.998715359054
0.840140806653
0.83854912416
0.998576064427
0.998694214639
0.838414623485
0.998380091128
0.998413295546
0.836740698936
0.838214587511
0.998248856771
0.998589016328
0.837594096722
0.997936456046
0.997917793102
0.835299879776
0.83539315348
0.997974996862
0.835143435803
0.997889855734
0.997890181211
0.997752775
0.835175945015
0.835168412395
0.997794859004
0.835208444185
0.99783376345
0.997939728365
0.998162063227
0.836139407744
0.836526957903
0.998051728905
0.997965054987
0.835666820884
0.997816245966
0.997569002064
0.834085949502
0.835312272947
0.997689083146
0.997754801696
0.835031300796
0.996326434685
0.997323789946
0.83541491156
0.839496251016
0.997388508769
0.837063126069
0.995961336014
0.993083156849
0.989145106223
0.786596020156
0.816438376642
0.8139241609
0.99174596458
0.987572590194
0.996292003005
0.997224718102
0.839454352765
0.834091699702
0.997347491831
0.996276488102
0.833265409248
0.992816049857
0.994595711322
0.812080286584
0.787945001751
0.993462486992
0.785798500017
0.993814865005
0.997841572619
0.998128705078
0.842757421891
0.851921213935
0.997986821708
0.844481601206
0.997964065125
0.997684135977
0.997627641908
0.836123265379
0.834270970796
0.997778373926
0.997557749617
0.838948329976
0.997766320131
0.997964688618
0.854380077732
0.851272930863
0.997876955123
0.847269999932
0.997877735613
0.997597123192
0.997623231821
0.837339636735
0.845926932846
0.997477589971
0.997729577326
0.84173570815
0.997288699017
0.997510238605
0.827276768432
0.832331823402
0.997323923672
0.997437986297
0.830616741807
0.997192617543
0.997174849353
0.826381527603
0.828397844006
0.997223864141
0.997093819818
0.828776411935
0.997168211031
0.997485447157
0.834311176981
0.835686611424
0.997330824127
0.997327709145
0.832047896844
0.997019532691
0.996921099936
0.829147332679
0.833477049077
0.996837832833
0.997156232648
0.830313850875
0.996823114628
0.997136579014
0.825592975452
0.827409168774
0.997020544286
0.997004395167
0.825657315386
0.996580827029
0.996575488015
0.823662663996
0.820786298818
0.996804568225
0.996314910613
0.823362364757
0.996277298118
0.996627758019
0.827642205541
0.827140968803
0.996608477785
0.996251497721
0.825556720352
0.995916166848
0.995477318957
0.82155928388
0.825483450318
0.995598955308
0.995851087298
0.823645006406
0.996006718144
0.996380734378
0.81968369761
0.820269751557
0.996298016164
0.996117600061
0.81962854558
0.995929651963
0.996081996094
0.82042480643
0.821556195179
0.996203382175
0.995920000892
0.820032967362
0.995234510805
0.995121228588
0.821151240604
0.824475170523
0.995285005752
0.995094643593
0.820827956321
0.995264888787
0.995275254501
0.8234424313
0.826136101176
0.995354620297
0.995138534598
0.82148829384
0.995924427648
0.995976922231
0.826570489346
0.824129359789
0.995913246605
0.995906853607
0.827544991321
0.99600155125
0.996046965931
0.829446565152
0.83442298376
0.995926647695
0.996135620931
0.830912167195
0.995781285475
0.995498557691
0.826379076771
0.834459411749
0.995521825898
0.995787756382
0.830083263542
0.99610416082
0.996583563614
0.83665645292
0.837357759316
0.996491383029
0.99614433494
0.833432326978
0.996511507423
0.996270031797
0.839664480266
0.837880239259
0.996496217707
0.99632724965
0.840453472431
0.99666030396
0.996889371696
0.840261989582
0.840762221757
0.996692242766
0.996787764392
0.841066135909
0.997048779601
0.997009410646
0.839820133631
0.842556778465
0.996889497756
0.997165908626
0.842688724643
0.997048547253
0.99719031481
0.84244717996
0.842726508348
0.997050086505
0.997193847431
0.842913279556
0.997104329775
0.997104763802
0.84131265885
0.839806986938
0.997367372493
0.996926728901
0.839368067009
0.997317544544
0.997937388083
0.840770551622
0.839603448678
0.99763360408
0.997554220977
0.839169139827
0.997095513364
0.997139244802
0.841010262146
0.840070449679
0.997050654614
0.997135472095
0.839364307336
0.997187586611