/*--------------------------------*- C++ -*----------------------------------*\
| =========                 |                                                 |
| \\      /  F ield         | OpenFOAM: The Open Source CFD Toolbox           |
|  \\    /   O peration     | Version:  v1906                                 |
|   \\  /    A nd           | Web:      www.OpenFOAM.com                      |
|    \\/     M anipulation  |                                                 |
\*---------------------------------------------------------------------------*/
FoamFile
{
    version     2.0;
    format      ascii;
    class       volVectorField;
    location    "14";
    object      force.turbine;
}
// * * * * * * * * * * * * * * * * * * * * * * * * * * * * * * * * * * * * * //

dimensions      [1 -2 -2 0 0 0 0];


internalField   nonuniform List<vector> 
28582
(
(0 0 0)
(0 0 0)
(0 0 0)
(0 0 0)
(0 0 0)
(0 0 0)
(0 0 0)
(0 0 0)
(0 0 0)
(0 0 0)
(0 0 0)
(0 0 0)
(0 0 0)
(0 0 0)
(0 0 0)
(0 0 0)
(0 0 0)
(0 0 0)
(0 0 0)
(0 0 0)
(0 0 0)
(0 0 0)
(0 0 0)
(0 0 0)
(0 0 0)
(0 0 0)
(0 0 0)
(0 0 0)
(0 0 0)
(0 0 0)
(0 0 0)
(0 0 0)
(0 0 0)
(0 0 0)
(0 0 0)
(0 0 0)
(0 0 0)
(0 0 0)
(0 0 0)
(0 0 0)
(0 0 0)
(0 0 0)
(0 0 0)
(0 0 0)
(0 0 0)
(0 0 0)
(0 0 0)
(0 0 0)
(0 0 0)
(0 0 0)
(0 0 0)
(0 0 0)
(0 0 0)
(0 0 0)
(0 0 0)
(0 0 0)
(0 0 0)
(0 0 0)
(0 0 0)
(0 0 0)
(0 0 0)
(0 0 0)
(0 0 0)
(0 0 0)
(0 0 0)
(0 0 0)
(0 0 0)
(0 0 0)
(0 0 0)
(0 0 0)
(0 0 0)
(0 0 0)
(0 0 0)
(0 0 0)
(0 0 0)
(0 0 0)
(0 0 0)
(0 0 0)
(0 0 0)
(0 0 0)
(0 0 0)
(0 0 0)
(0 0 0)
(0 0 0)
(0 0 0)
(0 0 0)
(0 0 0)
(0 0 0)
(0 0 0)
(0 0 0)
(0 0 0)
(0 0 0)
(0 0 0)
(0 0 0)
(0 0 0)
(0 0 0)
(0 0 0)
(0 0 0)
(0 0 0)
(0 0 0)
(0 0 0)
(0 0 0)
(0 0 0)
(0 0 0)
(0 0 0)
(0 0 0)
(0 0 0)
(0 0 0)
(0 0 0)
(0 0 0)
(0 0 0)
(0 0 0)
(0 0 0)
(0 0 0)
(0 0 0)
(0 0 0)
(0 0 0)
(0 0 0)
(0 0 0)
(0 0 0)
(0 0 0)
(0 0 0)
(0 0 0)
(0 0 0)
(0 0 0)
(0 0 0)
(0 0 0)
(0 0 0)
(0 0 0)
(0 0 0)
(0 0 0)
(0 0 0)
(0 0 0)
(0 0 0)
(0 0 0)
(0 0 0)
(0 0 0)
(0 0 0)
(0 0 0)
(0 0 0)
(0 0 0)
(0 0 0)
(0 0 0)
(0 0 0)
(0 0 0)
(0 0 0)
(0 0 0)
(0 0 0)
(0 0 0)
(0 0 0)
(0 0 0)
(0 0 0)
(0 0 0)
(0 0 0)
(0 0 0)
(0 0 0)
(0 0 0)
(0 0 0)
(0 0 0)
(0 0 0)
(0 0 0)
(0 0 0)
(0 0 0)
(0 0 0)
(0 0 0)
(0 0 0)
(0 0 0)
(0 0 0)
(0 0 0)
(0 0 0)
(0 0 0)
(0 0 0)
(0 0 0)
(0 0 0)
(0 0 0)
(0 0 0)
(0 0 0)
(0 0 0)
(0 0 0)
(0 0 0)
(0 0 0)
(0 0 0)
(0 0 0)
(0 0 0)
(0 0 0)
(0 0 0)
(0 0 0)
(0 0 0)
(0 0 0)
(0 0 0)
(0 0 0)
(0 0 0)
(0 0 0)
(0 0 0)
(0 0 0)
(0 0 0)
(0 0 0)
(0 0 0)
(0 0 0)
(0 0 0)
(0 0 0)
(0 0 0)
(0 0 0)
(0 0 0)
(0 0 0)
(0 0 0)
(0 0 0)
(0 0 0)
(0 0 0)
(0 0 0)
(0 0 0)
(0 0 0)
(0 0 0)
(0 0 0)
(0 0 0)
(0 0 0)
(0 0 0)
(-0.00313833953246 6.67352608531e-05 0)
(0 0 0)
(0 0 0)
(0 0 0)
(0 0 0)
(-2.26407523437e-05 2.95443218644e-07 0)
(0 0 0)
(-2.18729962028e-06 2.74829467326e-08 0)
(0 0 0)
(0 0 0)
(0 0 0)
(0 0 0)
(0 0 0)
(0 0 0)
(0 0 0)
(0 0 0)
(0 0 0)
(0 0 0)
(0 0 0)
(0 0 0)
(-0.0157701527438 0.000515880952178 0)
(0 0 0)
(0 0 0)
(0 0 0)
(-0.0269373335471 0.00066953245188 0)
(0 0 0)
(0 0 0)
(-0.0280355672661 0.000893102584509 0)
(-0.125645855565 0.00400258133795 0)
(-0.0728596713361 0.00181094072684 0)
(-0.776357492481 -0.00388768141435 0.000470663474083)
(-0.00525156396103 7.08331598798e-05 0)
(-0.0706879410187 0.00175696196455 0)
(0 0 0)
(0 0 0)
(0 0 0)
(0 0 0)
(0 0 0)
(-0.0157701744855 0.000515881663405 0)
(0 0 0)
(0 0 0)
(0 0 0)
(-0.0260594284243 0.000647711956235 0)
(0 0 0)
(0 0 0)
(0 0 0)
(0 0 0)
(0 0 0)
(0 0 0)
(0 0 0)
(0 0 0)
(-1.45678352209e-05 1.92879609479e-07 0)
(0 0 0)
(-8.34841901652e-06 1.10533910856e-07 0)
(-0.000146914290635 2.6206407696e-06 0)
(-0.000829964944875 1.48048223388e-05 0)
(-8.97416225315e-05 1.60080107742e-06 0)
(-0.000521049761067 9.29442766216e-06 0)
(0 0 0)
(0 0 0)
(-0.000310147571898 4.14996347322e-06 0)
(0 0 0)
(0 0 0)
(0 0 0)
(0 0 0)
(0 0 0)
(0 0 0)
(-0.0148690548194 0.000316183205083 0)
(-0.000666407981451 1.21544984925e-05 0)
(-0.00333019967413 7.08150732728e-05 0)
(-3.1845200915e-05 5.20904583285e-07 0)
(-0.000191277841348 3.41199285101e-06 0)
(-3.69557721159e-06 4.64341285072e-08 0)
(-3.69861008763e-05 6.04996323175e-07 0)
(0 0 0)
(0 0 0)
(0 0 0)
(0 0 0)
(0 0 0)
(-0.000348100155509 4.65779216502e-06 0)
(0 0 0)
(0 0 0)
(0 0 0)
(0 0 0)
(0 0 0)
(0 0 0)
(0 0 0)
(0 0 0)
(0 0 0)
(0 0 0)
(0 0 0)
(0 0 0)
(0 0 0)
(0 0 0)
(0 0 0)
(0 0 0)
(0 0 0)
(0 0 0)
(0 0 0)
(0 0 0)
(-0.00488756875701 6.62692748788e-05 0)
(0 0 0)
(0 0 0)
(0 0 0)
(0 0 0)
(0 0 0)
(-0.00418285641351 5.64184192158e-05 0)
(0 0 0)
(0 0 0)
(0 0 0)
(0 0 0)
(0 0 0)
(0 0 0)
(0 0 0)
(0 0 0)
(0 0 0)
(0 0 0)
(0 0 0)
(0 0 0)
(0 0 0)
(0 0 0)
(0 0 0)
(0 0 0)
(0 0 0)
(0 0 0)
(0 0 0)
(0 0 0)
(0 0 0)
(0 0 0)
(-0.0350238617144 0.000971776669257 0)
(-0.00792071656369 0.000158454579683 0)
(-0.0129633725197 0.000259333322606 0)
(-0.0098858575448 0.000210866968882 0)
(-0.0187424086251 0.000520029332462 0)
(0 0 0)
(0 0 0)
(0 0 0)
(0 0 0)
(0 0 0)
(0 0 0)
(0 0 0)
(0 0 0)
(0 0 0)
(0 0 0)
(-0.00466830688626 6.2966181217e-05 0)
(0 0 0)
(-0.00769684550025 0.000164174981608 0)
(0 0 0)
(0 0 0)
(-0.126076600197 0.00347179789072 0)
(-0.0982199661098 0.0027047038914 0)
(-0.17632652899 0.00437125796397 0)
(-0.0387766478755 0.000963800818758 0)
(-0.325991157399 -0.0133737382328 0.000449979903841)
(-0.0509498754854 0.00141366194002 0)
(-0.0923845558287 0.00229623537429 0)
(-0.266888490672 0.007349364573 0)
(-1.6211691641 -0.138946415008 0.00372910047665)
(-0.412671209047 -7.24180572163e-05 0.000208956577294)
(-0.363896963101 0.00902126019906 0)
(-0.895689570255 -0.0797736163819 0.0021184632637)
(-0.196859915195 0.00488029496759 0)
(-0.498542165938 0.0137284606139 0)
(-0.0595469617083 0.00163975722485 0)
(-0.0087214362 0.000186029669906 0)
(-0.0182652362908 0.000453985856342 0)
(-0.0181250181973 0.000450500709464 0)
(-0.0240644144116 0.000667694404325 0)
(-0.0240621818132 0.000667632458355 0)
(-0.0435616210325 0.00108273221946 0)
(-0.126052509458 0.00347113449897 0)
(-0.0981587361034 0.00270301778782 0)
(-0.172192045747 0.00426876123301 0)
(-0.0381032095953 0.000947062384638 0)
(-0.0509371660997 0.00141330930374 0)
(-0.091480562349 0.00227376644767 0)
(-0.235466869451 0.00648410077221 0)
(0 0 0)
(0 0 0)
(0 0 0)
(0 0 0)
(0 0 0)
(0 0 0)
(0 0 0)
(0 0 0)
(0 0 0)
(0 0 0)
(0 0 0)
(0 0 0)
(0 0 0)
(0 0 0)
(0 0 0)
(0 0 0)
(0 0 0)
(0 0 0)
(0 0 0)
(0 0 0)
(0 0 0)
(0 0 0)
(0 0 0)
(-0.00461286878044 6.22184313576e-05 0)
(0 0 0)
(-0.00769781005953 0.000164195555816 0)
(0 0 0)
(0 0 0)
(0 0 0)
(-0.0350132767293 0.00097148297687 0)
(-0.0126878195315 0.000253820862644 0)
(-0.00766256487422 0.000153290234119 0)
(-0.0187424753523 0.000520031183882 0)
(0 0 0)
(-0.00988489508619 0.000210846439482 0)
(0 0 0)
(0 0 0)
(0 0 0)
(0 0 0)
(0 0 0)
(0 0 0)
(0 0 0)
(0 0 0)
(0 0 0)
(0 0 0)
(0 0 0)
(0 0 0)
(0 0 0)
(0 0 0)
(0 0 0)
(0 0 0)
(0 0 0)
(0 0 0)
(0 0 0)
(0 0 0)
(0 0 0)
(0 0 0)
(0 0 0)
(0 0 0)
(0 0 0)
(0 0 0)
(0 0 0)
(0 0 0)
(0 0 0)
(0 0 0)
(0 0 0)
(0 0 0)
(0 0 0)
(0 0 0)
(0 0 0)
(0 0 0)
(-0.0150381788647 0.000314531809773 0)
(0 0 0)
(0 0 0)
(0 0 0)
(0 0 0)
(0 0 0)
(0 0 0)
(0 0 0)
(-0.00335574826717 7.01873268776e-05 0)
(0 0 0)
(0 0 0)
(0 0 0)
(0 0 0)
(0 0 0)
(0 0 0)
(0 0 0)
(0 0 0)
(0 0 0)
(0 0 0)
(0 0 0)
(0 0 0)
(0 0 0)
(0 0 0)
(0 0 0)
(0 0 0)
(0 0 0)
(0 0 0)
(0 0 0)
(0 0 0)
(0 0 0)
(0 0 0)
(0 0 0)
(0 0 0)
(0 0 0)
(0 0 0)
(0 0 0)
(-0.32257433143 0.00926979801442 0)
(-0.00772157582359 0.000161501019502 0)
(0 0 0)
(0 0 0)
(0 0 0)
(0 0 0)
(0 0 0)
(0 0 0)
(-0.0708108663547 0.00205164783659 0)
(0 0 0)
(0 0 0)
(0 0 0)
(0 0 0)
(0 0 0)
(0 0 0)
(0 0 0)
(0 0 0)
(0 0 0)
(0 0 0)
(0 0 0)
(0 0 0)
(0 0 0)
(0 0 0)
(0 0 0)
(0 0 0)
(0 0 0)
(0 0 0)
(0 0 0)
(0 0 0)
(0 0 0)
(0 0 0)
(0 0 0)
(0 0 0)
(0 0 0)
(0 0 0)
(0 0 0)
(-1.5167223684 0.0563513990511 0)
(-0.0435084024663 0.00163664117606 0)
(0 0 0)
(0 0 0)
(0 0 0)
(0 0 0)
(0 0 0)
(0 0 0)
(-0.332685883518 0.0122331456526 0)
(-0.00658679885408 0.000267744766971 0)
(0 0 0)
(0 0 0)
(0 0 0)
(0 0 0)
(0 0 0)
(0 0 0)
(0 0 0)
(0 0 0)
(0 0 0)
(0 0 0)
(0 0 0)
(0 0 0)
(0 0 0)
(0 0 0)
(0 0 0)
(0 0 0)
(0 0 0)
(0 0 0)
(0 0 0)
(0 0 0)
(0 0 0)
(0 0 0)
(0 0 0)
(0 0 0)
(0 0 0)
(0 0 0)
(0 0 0)
(0 0 0)
(0 0 0)
(0 0 0)
(0 0 0)
(0 0 0)
(0 0 0)
(-2.52359039943 0.0803916356168 0)
(-0.0762124046479 0.00242782658601 0)
(0 0 0)
(0 0 0)
(0 0 0)
(0 0 0)
(0 0 0)
(0 0 0)
(-2.52366164368 0.0803939051776 0)
(-0.563110488582 0.0179384789308 0)
(-0.0157700071892 0.000515876190726 0)
(0 0 0)
(0 0 0)
(0 0 0)
(0 0 0)
(0 0 0)
(0 0 0)
(-0.0462234638574 0.00147249722626 0)
(-0.0762092819088 0.00242772710786 0)
(-0.0157698827642 0.000515872120473 0)
(0 0 0)
(0 0 0)
(0 0 0)
(0 0 0)
(0 0 0)
(0 0 0)
(0 0 0)
(0 0 0)
(0 0 0)
(0 0 0)
(0 0 0)
(0 0 0)
(0 0 0)
(0 0 0)
(0 0 0)
(0 0 0)
(0 0 0)
(0 0 0)
(0 0 0)
(0 0 0)
(0 0 0)
(0 0 0)
(0 0 0)
(0 0 0)
(0 0 0)
(0 0 0)
(-0.0770580328716 0.00163843891345 0)
(-0.00241731900081 5.1403110599e-05 0)
(0 0 0)
(0 0 0)
(0 0 0)
(0 0 0)
(0 0 0)
(0 0 0)
(-0.0424743945369 0.000903107674063 0)
(-0.075976328088 0.00161543927092 0)
(-0.0176442209358 0.000375195760217 0)
(-0.00043262369841 5.78876866605e-06 0)
(0 0 0)
(0 0 0)
(0 0 0)
(0 0 0)
(0 0 0)
(0 0 0)
(-0.00119168369039 2.17349101775e-05 0)
(-0.00229071955585 4.87110350935e-05 0)
(-0.000417981922281 5.59285278076e-06 0)
(0 0 0)
(0 0 0)
(0 0 0)
(0 0 0)
(0 0 0)
(0 0 0)
(0 0 0)
(0 0 0)
(0 0 0)
(0 0 0)
(0 0 0)
(0 0 0)
(0 0 0)
(0 0 0)
(0 0 0)
(0 0 0)
(0 0 0)
(0 0 0)
(0 0 0)
(0 0 0)
(0 0 0)
(0 0 0)
(0 0 0)
(0 0 0)
(0 0 0)
(0 0 0)
(-0.000173838705511 2.52175532821e-06 0)
(-0.000179833746681 2.60872115651e-06 0)
(-2.38173897198e-05 3.1079736979e-07 0)
(0 0 0)
(0 0 0)
(0 0 0)
(0 0 0)
(0 0 0)
(0 0 0)
(0 0 0)
(-2.35833139111e-05 3.07742872781e-07 0)
(-2.38225364153e-05 3.10864529939e-07 0)
(-2.3177152426e-06 2.9121590825e-08 0)
(0 0 0)
(0 0 0)
(0 0 0)
(0 0 0)
(0 0 0)
(0 0 0)
(0 0 0)
(0 0 0)
(0 0 0)
(0 0 0)
(0 0 0)
(0 0 0)
(0 0 0)
(0 0 0)
(0 0 0)
(0 0 0)
(0 0 0)
(0 0 0)
(0 0 0)
(0 0 0)
(0 0 0)
(0 0 0)
(0 0 0)
(0 0 0)
(0 0 0)
(0 0 0)
(0 0 0)
(0 0 0)
(0 0 0)
(0 0 0)
(0 0 0)
(0 0 0)
(0 0 0)
(0 0 0)
(0 0 0)
(0 0 0)
(-0.00335568751455 7.01860562031e-05 0)
(-0.00912179755707 0.00019078742977 0)
(-0.00203536127209 4.25707042198e-05 0)
(-0.0867400402261 0.00216746741318 0)
(-0.0177669031563 0.00037160458418 0)
(-0.0526111444958 0.00131465169912 0)
(-0.0107757435161 0.000225380622233 0)
(0 0 0)
(0 0 0)
(0 0 0)
(-0.00240452117331 5.02918872748e-05 0)
(0 0 0)
(0 0 0)
(0 0 0)
(0 0 0)
(0 0 0)
(0 0 0)
(-0.0177666206469 0.000371598675339 0)
(-0.00396429283606 8.29153723612e-05 0)
(-0.00396434836383 8.2916533755e-05 0)
(0 0 0)
(0 0 0)
(0 0 0)
(0 0 0)
(0 0 0)
(0 0 0)
(0 0 0)
(0 0 0)
(-0.0708220710381 0.00205197247694 0)
(-0.195636616216 0.00562199697822 0)
(-0.0429546623008 0.00124455248916 0)
(-0.804178076956 0.0267217062775 0)
(-0.177660456658 0.00594051782245 0)
(-0.487711174365 0.0162059562715 0)
(-0.107753774481 0.00360301459189 0)
(0 0 0)
(-0.00468334337179 9.7954711124e-05 0)
(0 0 0)
(-0.0228842345474 0.000787407131369 0)
(0 0 0)
(-0.0122198418524 0.000409133491428 0)
(0 0 0)
(-0.0149488623705 0.000422674618746 0)
(-0.0149499412192 0.000422705122871 0)
(-0.00284049807727 5.9410584815e-05 0)
(-0.177617876622 0.0059390940534 0)
(-0.0377272607733 0.00129813012178 0)
(-0.0377257202544 0.00129807711518 0)
(-0.00741143618787 0.000248142881116 0)
(0 0 0)
(0 0 0)
(0 0 0)
(-0.00335574696175 7.0187299574e-05 0)
(0 0 0)
(0 0 0)
(0 0 0)
(-0.332713617779 0.0122341654652 0)
(-0.904343853291 0.0332535001497 0)
(-0.201802297654 0.00742044379559 0)
(-2.21627153257 0.0810841705463 0)
(-0.488804522933 0.017752787316 0)
(-1.32861966051 0.0482538543536 0)
(-0.296476963365 0.0107676836604 0)
(0 0 0)
(-0.0263891170789 0.000992670683426 0)
(0 0 0)
(-0.0661547488817 0.00240266022866 0)
(0 0 0)
(-0.0401255318876 0.00145731064285 0)
(0 0 0)
(-0.0742386372162 0.0027298184477 0)
(-0.074234922148 0.00272968184145 0)
(-0.0140930615515 0.000574754564734 0)
(-0.488783358126 0.0177520186359 0)
(-0.109065489907 0.00396112628874 0)
(-0.109062946417 0.00396103391225 0)
(-0.0243356308121 0.000883840590132 0)
(0 0 0)
(0 0 0)
(0 0 0)
(-0.0134737836652 0.000519920458662 0)
(0 0 0)
(0 0 0)
(0 0 0)
(-7.04791168901 0.229738963782 0)
(-4.18589794873 0.134052803587 0)
(-3.78924760686 0.0939380981058 0)
(-1.77550422429 0.0440159913821 0)
(-0.563127629276 0.0179390249657 0)
(-1.53068089641 0.0487614554636 0)
(-0.34155462542 0.0108805830757 0)
(-2.29545261559 0.0569058756175 0)
(-0.240383786883 0.00595928218424 0)
(-1.07757651999 0.0267138755113 0)
(-0.113063580442 0.00280292522782 0)
(0 0 0)
(-0.0462248237546 0.00147254054722 0)
(0 0 0)
(-0.0869371160294 0.00216083824158 0)
(0 0 0)
(-0.0408424546587 0.00101514683184 0)
(0 0 0)
(0 0 0)
(0 0 0)
(0 0 0)
(0 0 0)
(0 0 0)
(0 0 0)
(0 0 0)
(0 0 0)
(0 0 0)
(0 0 0)
(0 0 0)
(0 0 0)
(0 0 0)
(0 0 0)
(0 0 0)
(0 0 0)
(0 0 0)
(0 0 0)
(0 0 0)
(0 0 0)
(0 0 0)
(0 0 0)
(0 0 0)
(0 0 0)
(0 0 0)
(0 0 0)
(0 0 0)
(0 0 0)
(0 0 0)
(0 0 0)
(0 0 0)
(0 0 0)
(0 0 0)
(0 0 0)
(0 0 0)
(0 0 0)
(0 0 0)
(0 0 0)
(0 0 0)
(0 0 0)
(0 0 0)
(0 0 0)
(-0.341540592189 0.0108801360323 0)
(-0.563104840476 0.0179382990044 0)
(-1.20387154188 0.00698384099733 0.00046510623811)
(-2.29419637925 0.0568747326401 0)
(-0.117682484518 0.00291743109001 0)
(-0.244546537842 0.00606247969164 0)
(-1.53068132303 0.048761469054 0)
(-0.563104834727 0.0179382988213 0)
(-0.34154089936 0.0108801458176 0)
(-2.28919917505 0.0567508484534 0)
(-1.07726942413 0.0267062623903 0)
(-0.243643515056 0.00604009312527 0)
(-0.114162948104 0.00283017932098 0)
(-0.125646977701 0.00400261708478 0)
(-0.125645158452 0.00400255913068 0)
(-0.028034961511 0.000893083287541 0)
(-0.653207309385 0.0161934660066 0)
(-0.0672510253108 0.0016715367833 0)
(-0.0679328195583 0.00168848290654 0)
(-0.00492063590167 6.63695981083e-05 0)
(0 0 0)
(0 0 0)
(0 0 0)
(-0.0247111935351 0.000614201326481 0)
(0 0 0)
(0 0 0)
(0 0 0)
(0 0 0)
(0 0 0)
(0 0 0)
(0 0 0)
(0 0 0)
(0 0 0)
(0 0 0)
(0 0 0)
(0 0 0)
(0 0 0)
(0 0 0)
(0 0 0)
(0 0 0)
(0 0 0)
(0 0 0)
(0 0 0)
(0 0 0)
(0 0 0)
(0 0 0)
(0 0 0)
(0 0 0)
(0 0 0)
(0 0 0)
(0 0 0)
(0 0 0)
(0 0 0)
(0 0 0)
(0 0 0)
(0 0 0)
(0 0 0)
(0 0 0)
(0 0 0)
(0 0 0)
(0 0 0)
(0 0 0)
(0 0 0)
(0 0 0)
(0 0 0)
(0 0 0)
(0 0 0)
(0 0 0)
(0 0 0)
(-0.0762093952279 0.00242773071776 0)
(0 0 0)
(0 0 0)
(-0.042695149074 0.00106119589725 0)
(-0.088821897712 0.002207684842 0)
(0 0 0)
(0 0 0)
(-0.0462230027581 0.00147248253746 0)
(0 0 0)
(0 0 0)
(-0.0884455022453 0.00219832946244 0)
(-0.041441390984 0.00103003350597 0)
(0 0 0)
(0 0 0)
(0 0 0)
(0 0 0)
(0 0 0)
(-0.0250741622759 0.000623222982263 0)
(0 0 0)
(0 0 0)
(0 0 0)
(0 0 0)
(0 0 0)
(0 0 0)
(0 0 0)
(0 0 0)
(0 0 0)
(0 0 0)
(0 0 0)
(0 0 0)
(0 0 0)
(0 0 0)
(0 0 0)
(0 0 0)
(0 0 0)
(0 0 0)
(0 0 0)
(0 0 0)
(0 0 0)
(0 0 0)
(0 0 0)
(0 0 0)
(0 0 0)
(0 0 0)
(0 0 0)
(0 0 0)
(0 0 0)
(0 0 0)
(0 0 0)
(0 0 0)
(0 0 0)
(0 0 0)
(0 0 0)
(0 0 0)
(0 0 0)
(0 0 0)
(0 0 0)
(0 0 0)
(0 0 0)
(0 0 0)
(0 0 0)
(0 0 0)
(0 0 0)
(0 0 0)
(0 0 0)
(0 0 0)
(0 0 0)
(0 0 0)
(0 0 0)
(0 0 0)
(0 0 0)
(0 0 0)
(0 0 0)
(0 0 0)
(0 0 0)
(0 0 0)
(0 0 0)
(0 0 0)
(0 0 0)
(0 0 0)
(0 0 0)
(0 0 0)
(0 0 0)
(0 0 0)
(0 0 0)
(0 0 0)
(0 0 0)
(0 0 0)
(0 0 0)
(0 0 0)
(0 0 0)
(0 0 0)
(0 0 0)
(0 0 0)
(0 0 0)
(0 0 0)
(0 0 0)
(0 0 0)
(0 0 0)
(0 0 0)
(0 0 0)
(0 0 0)
(0 0 0)
(0 0 0)
(0 0 0)
(0 0 0)
(0 0 0)
(0 0 0)
(0 0 0)
(0 0 0)
(0 0 0)
(0 0 0)
(0 0 0)
(0 0 0)
(0 0 0)
(0 0 0)
(0 0 0)
(0 0 0)
(0 0 0)
(0 0 0)
(0 0 0)
(0 0 0)
(0 0 0)
(0 0 0)
(0 0 0)
(0 0 0)
(0 0 0)
(0 0 0)
(0 0 0)
(0 0 0)
(0 0 0)
(0 0 0)
(0 0 0)
(0 0 0)
(0 0 0)
(0 0 0)
(0 0 0)
(0 0 0)
(0 0 0)
(0 0 0)
(0 0 0)
(0 0 0)
(0 0 0)
(0 0 0)
(0 0 0)
(0 0 0)
(0 0 0)
(0 0 0)
(0 0 0)
(0 0 0)
(0 0 0)
(0 0 0)
(0 0 0)
(0 0 0)
(0 0 0)
(0 0 0)
(0 0 0)
(0 0 0)
(0 0 0)
(0 0 0)
(0 0 0)
(0 0 0)
(0 0 0)
(0 0 0)
(0 0 0)
(0 0 0)
(0 0 0)
(0 0 0)
(0 0 0)
(0 0 0)
(0 0 0)
(0 0 0)
(0 0 0)
(0 0 0)
(0 0 0)
(0 0 0)
(0 0 0)
(0 0 0)
(0 0 0)
(0 0 0)
(0 0 0)
(0 0 0)
(0 0 0)
(0 0 0)
(0 0 0)
(0 0 0)
(0 0 0)
(0 0 0)
(0 0 0)
(0 0 0)
(0 0 0)
(-0.00205498138313 3.66658457017e-05 0)
(-0.00323301610278 5.76848386797e-05 0)
(-0.00136602319258 2.43669697156e-05 0)
(-0.00221416560268 3.95060777739e-05 0)
(-0.205340627734 0.00436603508362 0)
(-0.127580646267 0.00271267105657 0)
(-0.00356540023559 6.36153767504e-05 0)
(-0.00208816303102 3.72578866767e-05 0)
(-0.00274447127132 4.89680154735e-05 0)
(-0.0016422596173 2.92944443238e-05 0)
(-0.0174786264467 0.000371674474101 0)
(-0.0473540181577 0.00100686019571 0)
(-0.0106914545969 0.000227348572086 0)
(-0.000858986868869 1.53225121898e-05 0)
(-0.000213830698407 3.81428820584e-06 0)
(-0.000695810573705 1.24117915929e-05 0)
(-0.000174664942274 3.1156538058e-06 0)
(0 0 0)
(-0.00140655303756 2.56538745791e-05 0)
(0 0 0)
(-3.12525943255e-05 4.1378750496e-07 0)
(0 0 0)
(-2.07002658446e-05 2.7407361023e-07 0)
(0 0 0)
(0 0 0)
(0 0 0)
(0 0 0)
(0 0 0)
(0 0 0)
(0 0 0)
(0 0 0)
(0 0 0)
(0 0 0)
(0 0 0)
(0 0 0)
(0 0 0)
(0 0 0)
(0 0 0)
(0 0 0)
(0 0 0)
(0 0 0)
(0 0 0)
(0 0 0)
(0 0 0)
(0 0 0)
(0 0 0)
(0 0 0)
(0 0 0)
(0 0 0)
(0 0 0)
(0 0 0)
(0 0 0)
(0 0 0)
(0 0 0)
(0 0 0)
(0 0 0)
(0 0 0)
(0 0 0)
(0 0 0)
(0 0 0)
(0 0 0)
(0 0 0)
(0 0 0)
(0 0 0)
(0 0 0)
(0 0 0)
(-0.0729842388324 0.00155182026475 0)
(-0.00940350162531 0.000199960879761 0)
(-0.0162833346475 0.000346257176453 0)
(-0.000659378919086 1.17619277914e-05 0)
(-0.00114459168588 2.04170991373e-05 0)
(-0.00014053465449 2.50684152989e-06 0)
(-0.00023074597961 4.11602110983e-06 0)
(-0.0473776738981 0.00100736317358 0)
(-0.0170390230733 0.000362326522582 0)
(-0.0106425187972 0.000226307976151 0)
(-0.00115964374275 2.0685596053e-05 0)
(-0.000688090490058 1.22740815997e-05 0)
(-0.000209946856218 3.74500866101e-06 0)
(-0.000130228299702 2.32299791995e-06 0)
(-0.00399014713409 8.48485344181e-05 0)
(-0.00399804791255 8.50165406222e-05 0)
(-0.000851178002492 1.55244865549e-05 0)
(-0.000267947987024 4.77962637871e-06 0)
(-6.14680656417e-05 1.00545753201e-06 0)
(-4.89885549916e-05 8.01325226107e-07 0)
(-6.05202976419e-06 7.60424452556e-08 0)
(0 0 0)
(0 0 0)
(0 0 0)
(0 0 0)
(0 0 0)
(0 0 0)
(0 0 0)
(0 0 0)
(0 0 0)
(0 0 0)
(0 0 0)
(0 0 0)
(0 0 0)
(0 0 0)
(0 0 0)
(0 0 0)
(0 0 0)
(0 0 0)
(0 0 0)
(0 0 0)
(0 0 0)
(0 0 0)
(0 0 0)
(0 0 0)
(0 0 0)
(0 0 0)
(0 0 0)
(0 0 0)
(0 0 0)
(0 0 0)
(0 0 0)
(0 0 0)
(0 0 0)
(0 0 0)
(0 0 0)
(0 0 0)
(0 0 0)
(0 0 0)
(0 0 0)
(0 0 0)
(0 0 0)
(0 0 0)
(0 0 0)
(0 0 0)
(0 0 0)
(0 0 0)
(0 0 0)
(0 0 0)
(0 0 0)
(-0.00218856063538 4.65386754315e-05 0)
(0 0 0)
(0 0 0)
(-1.42705840077e-05 1.88943973398e-07 0)
(-2.40547222321e-05 3.18486951555e-07 0)
(0 0 0)
(0 0 0)
(-0.00134807391162 2.45872840401e-05 0)
(0 0 0)
(0 0 0)
(-1.97843515839e-05 2.61946812924e-07 0)
(-1.24791526143e-05 1.6522524084e-07 0)
(0 0 0)
(0 0 0)
(0 0 0)
(0 0 0)
(0 0 0)
(0 0 0)
(0 0 0)
(0 0 0)
(0 0 0)
(0 0 0)
(0 0 0)
(0 0 0)
(0 0 0)
(0 0 0)
(0 0 0)
(0 0 0)
(0 0 0)
(0 0 0)
(0 0 0)
(0 0 0)
(0 0 0)
(0 0 0)
(0 0 0)
(0 0 0)
(0 0 0)
(0 0 0)
(0 0 0)
(0 0 0)
(0 0 0)
(0 0 0)
(0 0 0)
(0 0 0)
(0 0 0)
(0 0 0)
(0 0 0)
(0 0 0)
(0 0 0)
(0 0 0)
(0 0 0)
(0 0 0)
(0 0 0)
(0 0 0)
(0 0 0)
(0 0 0)
(0 0 0)
(0 0 0)
(0 0 0)
(0 0 0)
(0 0 0)
(0 0 0)
(0 0 0)
(0 0 0)
(0 0 0)
(0 0 0)
(0 0 0)
(0 0 0)
(0 0 0)
(0 0 0)
(0 0 0)
(0 0 0)
(0 0 0)
(0 0 0)
(0 0 0)
(0 0 0)
(0 0 0)
(0 0 0)
(0 0 0)
(0 0 0)
(0 0 0)
(0 0 0)
(0 0 0)
(0 0 0)
(0 0 0)
(0 0 0)
(0 0 0)
(0 0 0)
(0 0 0)
(0 0 0)
(0 0 0)
(0 0 0)
(0 0 0)
(0 0 0)
(0 0 0)
(0 0 0)
(0 0 0)
(0 0 0)
(0 0 0)
(0 0 0)
(0 0 0)
(0 0 0)
(0 0 0)
(0 0 0)
(0 0 0)
(0 0 0)
(0 0 0)
(0 0 0)
(0 0 0)
(0 0 0)
(0 0 0)
(0 0 0)
(0 0 0)
(0 0 0)
(0 0 0)
(0 0 0)
(0 0 0)
(0 0 0)
(0 0 0)
(0 0 0)
(0 0 0)
(0 0 0)
(0 0 0)
(0 0 0)
(0 0 0)
(0 0 0)
(0 0 0)
(0 0 0)
(0 0 0)
(0 0 0)
(0 0 0)
(0 0 0)
(0 0 0)
(0 0 0)
(0 0 0)
(0 0 0)
(0 0 0)
(0 0 0)
(0 0 0)
(0 0 0)
(0 0 0)
(0 0 0)
(0 0 0)
(0 0 0)
(0 0 0)
(0 0 0)
(0 0 0)
(0 0 0)
(0 0 0)
(0 0 0)
(0 0 0)
(0 0 0)
(0 0 0)
(0 0 0)
(0 0 0)
(0 0 0)
(0 0 0)
(0 0 0)
(0 0 0)
(0 0 0)
(0 0 0)
(0 0 0)
(0 0 0)
(0 0 0)
(0 0 0)
(0 0 0)
(0 0 0)
(0 0 0)
(0 0 0)
(0 0 0)
(0 0 0)
(0 0 0)
(0 0 0)
(0 0 0)
(0 0 0)
(0 0 0)
(0 0 0)
(0 0 0)
(0 0 0)
(0 0 0)
(0 0 0)
(0 0 0)
(0 0 0)
(0 0 0)
(0 0 0)
(0 0 0)
(0 0 0)
(0 0 0)
(0 0 0)
(0 0 0)
(0 0 0)
(0 0 0)
(0 0 0)
(0 0 0)
(0 0 0)
(0 0 0)
(-6.89824179761 0.190485395843 0)
(-5.35971367564 0.147591564215 0)
(-5.51717574867 0.136774645132 0)
(-3.32940223954 0.0825382098666 0)
(-4.72854516453 0.130210944004 0)
(-4.84441120123 0.120096341517 0)
(-7.82744167251 0.216415122535 0)
(-5.35779494333 0.147538727679 0)
(-2.53034282119 0.0696785831446 0)
(-2.58879068928 0.0641779316043 0)
(-2.58240415712 0.0640196050058 0)
(-3.68207750172 0.101394143592 0)
(-3.68169381838 0.101383578023 0)
(-3.76202237004 0.0932631654454 0)
(-1.53455038256 0.0422572370533 0)
(-3.25007423888 0.0894979787653 0)
(-1.22629639013 0.0304007450963 0)
(-2.018705788 0.0500451282245 0)
(-2.86748149454 0.0789624417923 0)
(-1.07937956846 0.0267585743438 0)
(-1.73917717197 0.0478920880466 0)
(-0.724697245599 0.0199561406697 0)
(-0.342356041725 0.00942753041946 0)
(-0.578288607336 0.01433617899 0)
(-0.211697223082 0.00524812220626 0)
(-0.302085145652 0.00831858227343 0)
(-0.509057122234 0.0126198820587 0)
(-0.821314716452 0.0226167163117 0)
(-1.19527103411 0.0329144301844 0)
(-1.53472232874 0.0422619719715 0)
(-1.57089979758 0.0389437045582 0)
(-0.576617039783 0.0142947396614 0)
(-2.23322221887 0.0614967105466 0)
(-0.821452220874 0.0226205027999 0)
(-0.840134810127 0.0208275294739 0)
(-0.56454167871 0.0155459030963 0)
(-0.161714330125 0.00445316156487 0)
(-0.164542039117 0.00407911221877 0)
(-0.272024726494 0.00674368320462 0)
(-0.235311039584 0.00647980965235 0)
(-0.387988675148 0.010684125856 0)
(-0.396028762536 0.00981782997775 0)
(-0.0349787099968 0.000970523883769 0)
(-0.125949299345 0.00346829238035 0)
(-0.0282460402521 0.000702060601243 0)
(-0.0765081912772 0.0019016253708 0)
(-0.111134627365 0.00306033763814 0)
(-0.0248540149401 0.000617751179152 0)
(-0.0396408494154 0.00109988021668 0)
(-0.00871343333947 0.000185858967573 0)
(0 0 0)
(-0.00733238313442 0.000146684921534 0)
(0 0 0)
(0 0 0)
(-0.00493665895908 6.65857173054e-05 0)
(-0.00987468970109 0.000210628756937 0)
(-0.0272433946779 0.000755898808511 0)
(-0.0594842094321 0.00163802920221 0)
(-0.0594609560651 0.00147791315855 0)
(-0.0119900204049 0.00023986133431 0)
(-0.0865627876229 0.00238369771246 0)
(-0.0187205834216 0.000519423767496 0)
(-0.0193192176773 0.000480182760379 0)
(-0.00488063124527 6.61752109597e-05 0)
(0 0 0)
(0 0 0)
(0 0 0)
(0 0 0)
(0 0 0)
(-0.00383673642953 5.17499485765e-05 0)
(0 0 0)
(0 0 0)
(0 0 0)
(0 0 0)
(0 0 0)
(0 0 0)
(0 0 0)
(0 0 0)
(0 0 0)
(0 0 0)
(0 0 0)
(0 0 0)
(0 0 0)
(0 0 0)
(0 0 0)
(0 0 0)
(0 0 0)
(0 0 0)
(0 0 0)
(0 0 0)
(0 0 0)
(0 0 0)
(0 0 0)
(0 0 0)
(0 0 0)
(0 0 0)
(0 0 0)
(0 0 0)
(0 0 0)
(0 0 0)
(0 0 0)
(0 0 0)
(0 0 0)
(0 0 0)
(0 0 0)
(0 0 0)
(0 0 0)
(0 0 0)
(0 0 0)
(0 0 0)
(0 0 0)
(0 0 0)
(0 0 0)
(0 0 0)
(0 0 0)
(0 0 0)
(0 0 0)
(0 0 0)
(0 0 0)
(0 0 0)
(0 0 0)
(0 0 0)
(0 0 0)
(0 0 0)
(0 0 0)
(0 0 0)
(0 0 0)
(0 0 0)
(0 0 0)
(0 0 0)
(0 0 0)
(0 0 0)
(0 0 0)
(0 0 0)
(0 0 0)
(0 0 0)
(0 0 0)
(0 0 0)
(0 0 0)
(0 0 0)
(0 0 0)
(0 0 0)
(0 0 0)
(0 0 0)
(0 0 0)
(0 0 0)
(0 0 0)
(0 0 0)
(0 0 0)
(0 0 0)
(0 0 0)
(0 0 0)
(0 0 0)
(0 0 0)
(0 0 0)
(0 0 0)
(0 0 0)
(0 0 0)
(0 0 0)
(0 0 0)
(0 0 0)
(0 0 0)
(0 0 0)
(0 0 0)
(0 0 0)
(0 0 0)
(0 0 0)
(0 0 0)
(0 0 0)
(0 0 0)
(0 0 0)
(0 0 0)
(0 0 0)
(0 0 0)
(0 0 0)
(0 0 0)
(0 0 0)
(0 0 0)
(0 0 0)
(0 0 0)
(0 0 0)
(0 0 0)
(0 0 0)
(0 0 0)
(0 0 0)
(0 0 0)
(0 0 0)
(0 0 0)
(0 0 0)
(0 0 0)
(0 0 0)
(0 0 0)
(0 0 0)
(0 0 0)
(0 0 0)
(0 0 0)
(0 0 0)
(0 0 0)
(0 0 0)
(0 0 0)
(0 0 0)
(0 0 0)
(0 0 0)
(0 0 0)
(0 0 0)
(0 0 0)
(0 0 0)
(0 0 0)
(0 0 0)
(0 0 0)
(0 0 0)
(0 0 0)
(0 0 0)
(0 0 0)
(0 0 0)
(0 0 0)
(0 0 0)
(0 0 0)
(0 0 0)
(0 0 0)
(0 0 0)
(0 0 0)
(0 0 0)
(0 0 0)
(0 0 0)
(0 0 0)
(0 0 0)
(0 0 0)
(0 0 0)
(0 0 0)
(0 0 0)
(0 0 0)
(0 0 0)
(0 0 0)
(0 0 0)
(0 0 0)
(0 0 0)
(0 0 0)
(-1.19555484989 0.0329222456792 0)
(-2.2250016022 -0.122277224368 0.00372826097959)
(-1.63945586527 0.0306946813954 0.000201771864399)
(-0.594033834262 0.0147265141766 0)
(-2.63065651223 -0.0319398078768 0.00211729370064)
(-0.856775162847 0.0212400554549 0)
(-0.821792798137 0.0226298813477 0)
(-1.53488085001 0.0422663372049 0)
(-3.24915897495 0.0894727749499 0)
(-2.03497839693 0.0504485375797 0)
(-1.23154572518 0.0305308797831 0)
(-2.95810945757 0.0591268893014 0.000449588692163)
(-1.73902775453 0.047887973507 0)
(-1.0929213418 0.0270942843752 0)
(-0.564697575771 0.0155501960665 0)
(-0.16182069755 0.00445609062707 0)
(-0.281410651383 0.00697636684649 0)
(-0.170064183729 0.0042160100455 0)
(-0.235427047633 0.00648300419044 0)
(-0.406046666442 0.0100661808214 0)
(-0.388153884421 0.0106886752586 0)
(-0.724963206454 0.0199634644898 0)
(-0.342457324093 0.00943031945335 0)
(-0.583878235675 0.0144747497855 0)
(-0.216997003214 0.00537950746202 0)
(-0.821392602757 0.0226188610833 0)
(-0.302249711486 0.00832311395747 0)
(-0.517972694709 0.0128409053353 0)
(-1.53427310316 0.042249601552 0)
(-3.24877698967 0.0894622561407 0)
(-2.01347334679 0.0499154123478 0)
(-1.22868660304 0.030460000146 0)
(-2.86650066335 0.0789354324373 0)
(-1.73881918249 0.0478822300148 0)
(-1.0820805034 0.0268255324098 0)
(-1.19477809057 0.0329008558943 0)
(-1.53409812767 0.0422447832152 0)
(-1.5663997531 0.0388321453084 0)
(-0.577650565213 0.0143203614796 0)
(-2.23220921062 0.0614688151248 0)
(-0.821076896928 0.0226101674254 0)
(-0.840860236599 0.0208455133034 0)
(-0.724651824848 0.0199548899089 0)
(-0.342410073788 0.00942901831176 0)
(-0.581769011057 0.0144224606322 0)
(-0.21437326723 0.00531446321213 0)
(-0.821271866863 0.0226155363535 0)
(-0.302128092734 0.00831976491627 0)
(-0.512018268932 0.0126932909562 0)
(-0.564275346847 0.0155385690597 0)
(-0.161651648695 0.00445143549315 0)
(-0.273109379019 0.00677057249925 0)
(-0.166513169318 0.00412797791492 0)
(-0.387749789601 0.0106775476144 0)
(-0.235257179713 0.00647832650175 0)
(-0.397930184626 0.0098649675611 0)
(-0.26649234241 0.00733845575489 0)
(-0.930441874726 0.0256217738507 0)
(-0.349177920423 0.00865636483762 0)
(-0.349945133256 0.00867538458029 0)
(-0.497971750541 0.013712752965 0)
(-0.497963692805 0.0137125310774 0)
(-0.186916020394 0.00463377886141 0)
(-0.125851502987 0.00346559934145 0)
(-0.0980127245154 0.00269899703597 0)
(-0.164554793595 0.0040794284112 0)
(-0.0359901501867 0.000894541898735 0)
(-0.235174295516 0.00647604410215 0)
(-0.0508445250858 0.00141073887399 0)
(-0.0866065197021 0.00215262120817 0)
(-0.125813210876 0.00346454488351 0)
(-0.0980178600796 0.00269913845508 0)
(-0.165348876718 0.00409911428713 0)
(-0.0362684522824 0.000901459149257 0)
(-0.235128078731 0.00647477142082 0)
(-0.0508412922147 0.00141064917433 0)
(-0.0868370553835 0.00215835121555 0)
(-0.0594084321546 0.00163594250736 0)
(-0.0086976545515 0.000185522403428 0)
(-0.0170165341061 0.00042294913053 0)
(-0.0170977142904 0.00042496687916 0)
(-0.0240000115077 0.000665907472891 0)
(-0.0240060833141 0.000666075942028 0)
(-0.0409240495638 0.00101717488843 0)
(0 0 0)
(-0.0349472033686 0.000969649696722 0)
(-0.00724911816628 0.000145019199068 0)
(-0.0119603101061 0.000239266977364 0)
(-0.0098638509479 0.000210397564547 0)
(-0.018700954922 0.000518879152567 0)
(0 0 0)
(0 0 0)
(0 0 0)
(0 0 0)
(0 0 0)
(0 0 0)
(0 0 0)
(0 0 0)
(0 0 0)
(0 0 0)
(-0.0043272438439 5.83659186688e-05 0)
(0 0 0)
(-0.00767417185729 0.000163691349071 0)
(0 0 0)
(0 0 0)
(0 0 0)
(0 0 0)
(0 0 0)
(0 0 0)
(0 0 0)
(0 0 0)
(0 0 0)
(0 0 0)
(0 0 0)
(0 0 0)
(0 0 0)
(0 0 0)
(0 0 0)
(0 0 0)
(0 0 0)
(0 0 0)
(0 0 0)
(0 0 0)
(0 0 0)
(0 0 0)
(0 0 0)
(0 0 0)
(0 0 0)
(0 0 0)
(0 0 0)
(0 0 0)
(0 0 0)
(0 0 0)
(0 0 0)
(0 0 0)
(0 0 0)
(0 0 0)
(0 0 0)
(0 0 0)
(0 0 0)
(0 0 0)
(0 0 0)
(0 0 0)
(0 0 0)
(0 0 0)
(0 0 0)
(0 0 0)
(0 0 0)
(0 0 0)
(0 0 0)
(0 0 0)
(0 0 0)
(0 0 0)
(0 0 0)
(0 0 0)
(0 0 0)
(0 0 0)
(0 0 0)
(0 0 0)
(0 0 0)
(0 0 0)
(0 0 0)
(0 0 0)
(0 0 0)
(0 0 0)
(0 0 0)
(0 0 0)
(0 0 0)
(0 0 0)
(0 0 0)
(0 0 0)
(0 0 0)
(0 0 0)
(0 0 0)
(0 0 0)
(0 0 0)
(0 0 0)
(0 0 0)
(0 0 0)
(0 0 0)
(0 0 0)
(0 0 0)
(0 0 0)
(0 0 0)
(0 0 0)
(0 0 0)
(0 0 0)
(0 0 0)
(0 0 0)
(0 0 0)
(0 0 0)
(0 0 0)
(0 0 0)
(0 0 0)
(0 0 0)
(0 0 0)
(0 0 0)
(0 0 0)
(0 0 0)
(0 0 0)
(0 0 0)
(0 0 0)
(0 0 0)
(0 0 0)
(0 0 0)
(0 0 0)
(0 0 0)
(0 0 0)
(0 0 0)
(0 0 0)
(0 0 0)
(0 0 0)
(0 0 0)
(0 0 0)
(0 0 0)
(0 0 0)
(0 0 0)
(0 0 0)
(0 0 0)
(0 0 0)
(0 0 0)
(0 0 0)
(0 0 0)
(0 0 0)
(0 0 0)
(0 0 0)
(0 0 0)
(0 0 0)
(0 0 0)
(0 0 0)
(0 0 0)
(0 0 0)
(0 0 0)
(0 0 0)
(0 0 0)
(0 0 0)
(0 0 0)
(0 0 0)
(0 0 0)
(0 0 0)
(0 0 0)
(0 0 0)
(0 0 0)
(0 0 0)
(0 0 0)
(0 0 0)
(0 0 0)
(0 0 0)
(0 0 0)
(0 0 0)
(0 0 0)
(0 0 0)
(0 0 0)
(0 0 0)
(0 0 0)
(0 0 0)
(0 0 0)
(0 0 0)
(0 0 0)
(0 0 0)
(0 0 0)
(0 0 0)
(0 0 0)
(0 0 0)
(0 0 0)
(0 0 0)
(0 0 0)
(0 0 0)
(0 0 0)
(0 0 0)
(0 0 0)
(0 0 0)
(0 0 0)
(0 0 0)
(0 0 0)
(0 0 0)
(0 0 0)
(0 0 0)
(0 0 0)
(0 0 0)
(-0.0272692440063 0.000756616027373 0)
(-0.0595429984024 0.00163964808646 0)
(-0.0617393935061 0.00153454414631 0)
(-0.0125646598371 0.000251357042932 0)
(-0.0866277233252 0.00238548586057 0)
(-0.0201155731196 0.0004999763235 0)
(-0.0187430272667 0.000520046497372 0)
(-0.0350107251584 0.000971412180647 0)
(-0.126014110339 0.00347007709433 0)
(-0.0788021011072 0.00195864092767 0)
(-0.0289681656095 0.000720009161749 0)
(-0.111218356451 0.00306264330362 0)
(-0.0396678751887 0.00110063007734 0)
(-0.0256878432169 0.000638476136567 0)
(-0.00488688907861 6.6260059296e-05 0)
(0 0 0)
(0 0 0)
(0 0 0)
(0 0 0)
(-0.00399795588938 5.39244786518e-05 0)
(0 0 0)
(-0.00872437113142 0.000186092272476 0)
(0 0 0)
(-0.00752739590059 0.000150586167798 0)
(0 0 0)
(-0.00988501385011 0.000210848972735 0)
(0 0 0)
(-0.00510764647661 6.88919990639e-05 0)
(-0.0349953152643 0.000970984615702 0)
(-0.125996201507 0.00346958393507 0)
(-0.0778183340735 0.00193418921448 0)
(-0.0288536026865 0.000717161678922 0)
(-0.111172019852 0.00306136732294 0)
(-0.0396618051291 0.00110046165667 0)
(-0.0253655934025 0.000630466557298 0)
(-0.0272487490255 0.000756047370942 0)
(-0.0594777506232 0.00163785134463 0)
(-0.06045655386 0.00150265892752 0)
(-0.0122082924591 0.000244227884523 0)
(-0.0865634184495 0.00238371508367 0)
(-0.0187226683417 0.000519481615964 0)
(-0.0196987582454 0.000489616312022 0)
(-0.00872063620061 0.000186012605787 0)
(0 0 0)
(-0.00749549459353 0.000149947979553 0)
(0 0 0)
(-0.00988349323482 0.000210816537761 0)