/*--------------------------------*- C++ -*----------------------------------*\
| =========                 |                                                 |
| \\      /  F ield         | OpenFOAM: The Open Source CFD Toolbox           |
|  \\    /   O peration     | Version:  v1906                                 |
|   \\  /    A nd           | Web:      www.OpenFOAM.com                      |
|    \\/     M anipulation  |                                                 |
\*---------------------------------------------------------------------------*/
FoamFile
{
    version     2.0;
    format      ascii;
    class       volScalarField;
    location    "14";
    object      p;
}
// * * * * * * * * * * * * * * * * * * * * * * * * * * * * * * * * * * * * * //

dimensions      [1 -1 -2 0 0 0 0];


internalField   nonuniform List<scalar> 
28582
(
17080.1219509
17080.1974447
12182.3599875
12182.2923904
7285.13924233
7284.34151981
3612.53952052
3611.31450997
50.6281072555
53.5582752046
-27.0824712358
3611.93600217
644.720531028
645.320170556
3610.82902595
3610.85591399
645.891162578
1775.5118431
1775.07000033
17079.0990719
17080.6627354
17081.85268
12181.2741735
12182.6360557
12183.8269507
7283.83175465
7283.65464158
3611.39786094
3610.41447532
54.9017753255
-27.0894960543
-27.0371239828
3611.31847027
3612.30779622
641.56477984
644.134709546
1778.52492727
3610.06335398
3610.19746863
3609.91007109
1774.72347058
647.966849836
1774.20314633
1773.15939945
51.8717272275
54.4883758748
-22.9679698369
-22.9657372331
52.5250113727
-22.9949696087
1777.60943982
1777.34874481
644.948283161
644.708197037
1777.8251855
645.179147689
1776.97443363
1776.99659211
1776.33121242
645.029810769
645.886024968
1776.80718078
645.508705831
1776.49106957
1776.5749525
1776.3815125
646.496675749
646.461777912
1776.72500876
647.078586999
1776.39668277
1775.93238477
647.301811771
647.698507865
1776.20738112
647.080611544
647.59067909
1776.28380712
1774.89168847
647.689149088
647.935385412
1776.01732528
648.002613603
1776.01083058
647.701681687
48.9308817909
-23.014281148
47.2349852047
48.5938408891
-23.0588893025
-23.0295370929
55.8542155707
-22.9501976017
-22.934100788
56.9795419134
-22.9644011501
56.0929381241
-22.9452918898
1778.12491603
1777.19973099
642.715904694
641.713975201
1777.68983585
1777.56200903
642.907656093
1778.25598242
1777.47941584
643.63340592
644.506738998
1777.75911163
1777.98274989
643.901121758
644.284880214
644.833827529
1778.23726887
1778.48726159
644.780493673
1778.20815123
644.184622971
1775.45934667
647.379558844
647.54788899
1773.97430068
647.456500501
1774.83667602
647.48923093
1773.49967642
1773.81809231
647.583221961
648.083999524
1774.24997955
1773.41009933
647.625287031
1773.38110711
1773.9691938
647.507948677
647.717177975
647.762818915
1773.56706309
647.562377309
647.982490582
648.584571248
1773.37401826
1773.30274747
648.310853269
1773.39981844
647.780539068
7284.19994452
3610.15737384
57.3970766055
-27.0426596952
3611.88514753
644.831598264
3610.11660886
3610.75186453
648.457653936
649.492469655
652.309074571
3611.62218838
3612.57040754
652.991199596
653.490892885
50.269737903
58.0650183961
58.7825481103
-22.9612423863
-22.9766120474
-22.9963658239
59.2301377119
59.1345584997
1776.59951762
1777.5557393
644.762059178
644.708026619
1777.48614284
644.501197673
1776.74091325
1773.89770721
1773.61764979
649.132044142
648.740151393
1773.75141167
1773.52249178
649.519469502
1774.2061975
1773.79265745
649.079715266
650.538964625
1773.67366356
650.048531481
1774.46967867
1774.82730735
1775.81732766
651.877040852
651.461825719
1775.49644879
650.937230282
1775.12332307
1776.31506209
1776.36813842
652.634663193
653.392241724
1775.98155962
653.076379837
1776.76131538
1776.58881515
1777.20184284
653.379032338
653.470917693
1776.90927964
653.229755357
1776.9915727
3626.00825095
3620.13598716
3617.78059154
3615.60492374
32.080553198
39.2894005622
34.1066014906
39.0810740987
37.4831872591
-27.0782881602
-27.2541352503
-27.0970386568
-27.2213822187
-27.1543904222
-27.1643503842
3627.00795168
3625.9035722
632.103458131
630.98713782
3629.03532299
633.556680926
3623.76498923
3621.19496723
630.814612975
631.037928546
3626.14707518
3622.49753691
3622.12826488
633.241200047
640.242361027
632.794549302
637.470745735
3619.52305652
3615.23833123
641.575686356
637.107356429
638.41746279
638.113901787
3619.70686302
3618.13602036
632.410433862
636.575999805
634.501447084
3614.78625804
3616.75505271
3614.60335158
637.536329081
638.183908573
635.232254299
636.917618663
634.537507221
636.110829202
29.1384377633
28.7174126661
31.2038915607
-23.0917067681
-23.0810490254
-23.0927053665
-23.0834629291
-23.0557178169
-23.0713669021
-23.023555886
-23.0116609976
29.7019383918
31.713084102
35.295991294
33.7336269667
36.5040684072
-23.0876360227
-23.0527176907
-23.087070971
-23.0415240113
43.3313994077
39.7957912148
43.3223783327
-22.9669886018
-22.9131657272
-22.9630481206
-22.8965372261
36.3107039576
35.7429424095
-23.0909453358
-23.0566113439
-23.0691582971
42.2904493471
38.1332702682
41.0771701088
-23.0225430734
-22.9810410385
-23.0575228528
-23.0247237825
1790.70823463
1792.93223637
629.680911915
631.750729192
1792.82636725
629.295290332
1790.86885375
1790.18065465
1791.42849759
631.316852859
628.607502461
1792.29021438
1789.38556386
628.859583075
1796.45789767
1793.44193562
633.894839826
636.294628887
1794.41930224
1795.30058867
636.697797546
1787.00356969
1790.23160659
628.498177042
630.844825908
1788.27236147
1788.77057799
628.622716018
1785.79888472
1786.09207769
631.076756191
629.162243417
1787.40460912
1784.63580666
629.046739814
1791.31777596
1791.98490784
635.705241323
633.0658663
1793.39988847
1790.25896412
635.293628549
1791.74662681
1793.87676884
638.24501469
639.232857634
1794.15812889
1791.2568772
637.53135408
1789.44985841
1787.16429424
633.025620703
634.481491609
1788.64769023
1787.82016913
634.962830792
1789.69331186
1787.43277627
638.348298716
636.143493637
1789.13415152
1787.96053491
636.84961117
1785.98794978
1791.78280982
641.306196529
640.380047344
1787.89571978
1789.27353222
640.330371751
1781.26718714
1775.93772486
639.406225226
637.501773495
1782.34594514
639.134746579
1775.79559913
1784.66463345
1786.00531515
639.33067069
638.809645275
1787.42686067
1783.75899192
639.551417754
1780.80688488
1777.07632603
637.802706889
638.56854416
1780.67405284
638.829845123
1776.31163625
1785.60254557
1786.0069177
633.897113554
632.061799268
1786.5468362
1785.12438251
633.386368653
1785.61668852
1786.1714537
635.347027063
635.809786736
1786.60794029
1785.25311935
634.67114617
1784.8168531
1783.74430022
635.08672217
633.618370909
1784.45652862
1784.13609603
634.085828693
1782.84637584
1785.04208755
638.109588902
636.744094505
1783.21626309
1784.33271262
637.398404066
1780.8601316
1777.84821907
638.256796073
638.00289512
1780.75534347
637.770263581
1778.50448511
1782.34082473
1782.94516066
635.940250709
635.809555412
1783.633688
1781.75907209
636.598417088
1780.68887705
1778.78988365
637.572191205
636.363525346
1780.32092112
637.128939484
1778.81877841
1779.9272233
1782.12061787
635.020131289
633.862577884
1780.97964164
1781.08046586
634.226802901
1778.35212481
635.540445723
1779.66565134
17078.8765761
17079.0545518
17079.8484418
17083.7007545
17086.0235916
17098.2473148
12181.0821197
12181.2212386
12182.0298363
12185.5106266
12187.4400928
12200.3116384
18291.6564411
18296.7895549
17071.1108185
17077.9318092
17083.6705888
17087.9472767
17093.8799562
17075.96085
18292.8902924
18297.003239
17076.1471081
17079.206669
17081.9413535
17084.0030317
17085.9133031
17099.8272298
17074.2135264
17074.3346713
17076.0451522
17078.5092054
17081.0850324
17083.0225416
17084.1627119
17099.0077973
17077.3820214
17077.1175353
17077.8373544
17079.4676883
17081.6230599
17083.6495691
17085.6897117
17100.1797709
17081.4250868
17083.3598106
17085.6322169
17099.0276304
13391.5278452
13396.3418182
12176.7720754
12182.1780636
12188.9743906
12196.6190087
12258.3654255
12073.0986407
13394.5957745
13398.4252306
12180.4980039
12183.9213251
12185.3508259
12186.5620259
12188.7722255
12196.2431529
12175.1809424
12176.6567599
12179.2137047
12181.5013216
12183.3860694
12184.6810292
12185.044554
12195.5222482
12179.3027914
12179.2738461
12180.2790757
12182.0283418
12183.8775889
12185.2574474
12186.3938183
12201.2954217
12183.5025862
12185.1152833
12186.7712701
12200.8684362
8490.59999513
8496.25096139
7279.28164913
7283.69058337
7285.46556409
7282.31942452
7272.21282471
7212.71439134
8494.63870041
8499.24159973
7276.62201646
7282.03293883
7284.03767062
7281.80293587
7272.13030991
7264.44219514
7276.21038971
7277.10899338
7279.06019912
7281.70306121
7283.11001768
7281.85039669
7275.14219273
7293.63020678
7282.5415399
7281.26378883
7281.2117104
7281.45464046
7282.58696568
7283.71980521
7283.36947503
7280.52791207
7299.13697168
7283.66370922
7283.22113035
7283.35361463
7284.06652894
7284.1049219
7283.05024571
7300.02779461
7284.6602011
7284.23883556
7299.69569613
3591.76179832
3597.64891084
3605.86601458
3612.35879023
3616.93538213
3617.03069015
3613.25983615
3590.16019351
3593.13039072
3592.93744862
3597.1937185
3602.81184961
3609.28572244
3613.04105194
3613.53272926
3610.13089856
3597.93692001
3611.38243887
3603.75857388
3599.82087404
3600.68406006
3604.80311439
3608.64066143
3611.02472557
3612.39436781
3611.24066292
3611.77433743
3608.95633733
3607.60975945
3607.04441073
3607.47150786
3609.36246657
3611.07122186
3612.04133805
3612.70497613
3617.40715301
3610.9756463
3610.21187092
3610.51209723
3610.60163948
3611.31695497
3613.04343727
3617.89996064
3611.23483978
3613.09481484
3617.20904031
53.227560368
57.5690318095
60.8146593177
60.2902771235
58.5006591925
58.9902299014
59.7949075346
61.7277177476
47.1759234233
52.9195796283
56.58158568
59.4242019055
62.9571901567
60.0536186324
59.0513309475
59.757934767
60.072667647
58.9146459388
45.9583447175
51.9292761823
55.8818554614
56.3581684112
55.4062732666
54.9778150202
57.4607246505
59.2951077651
60.7179115481
59.9384414968
48.0239210658
50.3352273924
50.5754818606
50.6943428005
52.3557360015
55.3322991037
58.5786761328
60.4329401431
59.8228791689
49.7339403602
51.1185513736
52.5291988435
55.8018175782
58.7865786436
59.812440416
59.2745132925
59.2711187397
59.1437759584
58.6119560292
-27.110165621
-27.4275684721
-27.4422323929
-27.5253179221
-27.1855472094
-27.1110156637
-27.0526786104
-27.037207717
-27.1255855814
-27.3442746139
-27.4167538902
-27.5831474958
-27.5300988652
-27.2427628563
-27.0265182039
-27.3058293603
-27.0452750037
-27.0861673917
-27.1102435919
-27.3380583946
-27.4989644803
-27.1430743286
-27.1698404382
-27.0727480672
-27.007078591
-27.0325740772
-27.1846822164
-27.0703205379
-27.166200932
-27.3986418281
-27.1284847031
-27.1322850982
-27.0476430256
-27.0040587648
-27.0294276662
-27.0279288891
-27.0557016908
-27.1325414933
-27.3777663919
-27.07671273
-27.0317482382
-27.1494921526
-27.0493444876
-27.0873846287
-27.1423697391
-27.4001824681
-27.074502306
-27.1551262386
-27.4003717046
18294.4486692
18291.5064566
18294.4230797
15842.0501413
15844.9640407
15842.1129052
15844.8763611
18298.5780839
18296.9576088
18298.9827748
15847.4312445
15844.9469379
15846.9582968
15846.9836806
18294.8571426
18295.260787
18295.9724805
15843.5010518
15845.8782806
15845.7296685
15846.9978055
18298.7834337
18297.3525366
18299.0706487
15847.9334344
15848.9937728
15848.8119799
15850.8284105
13394.2662234
13392.3624491
13394.8187082
10940.6853517
10943.7538394
10941.9819911
10944.6745224
13398.0041597
13396.4652654
13398.8279495
10945.9562665
10947.7078562
10946.6634708
10947.9115507
13396.708899
13396.3410373
13397.918203
10944.7377717
10947.0138898
10946.6327379
10947.7273421
13399.6811558
13399.5995899
13404.2145288
10948.8576273
10946.4599681
10949.023857
10953.1378588
8493.72495592
8492.03441255
8494.77855626
6041.16953666
6044.08245991
6042.24031244
6044.58242004
8498.28498239
8497.26383275
8499.53676885
6047.05783062
6049.85220336
6047.24477925
6051.20841242
8497.01785441
8496.82003821
8497.86998784
6044.03919523
6046.19873828
6046.02575311
6047.27749488
8497.11799742
8499.22982813
8502.49876297
6048.46769514
6049.57363012
6049.00787837
6052.14217157
3589.78016508
3590.68458303
633.830073203
635.84705305
3594.24667838
3592.18206127
3594.27761078
635.018467081
637.963509123
637.151206863
639.364251153
3601.87575217
3597.2286016
3601.10751512
639.489300998
648.040225742
640.911688933
649.365669322
3609.16453312
3604.4554365
3607.56896536
651.351685862
656.497178569
652.474892232
655.425416484
3615.33808538
3610.57904703
3613.03801066
656.834795575
656.977820119
655.098600712
654.534885349
3617.3899706
3614.53897341
3615.02322597
657.106881339
656.041067193
654.77593592
654.362219776
3615.87436066
3614.83516291
3614.53755686
654.675913371
652.844489246
654.016780141
653.446864969
3604.76687953
3613.8590656
3606.25495092
652.707047581
654.109633757
653.356645531
652.04941105
3580.01353129
3592.80207754
3598.84275672
659.755927709
560.107351548
653.402875289
616.402659903
3610.36519529
3604.36831486
634.451035134
630.925449784
637.226423611
637.17082859
3592.0295853
3599.1734237
3596.38283741
632.142166975
636.886963746
638.157658855
641.000110524
3594.7352734
3595.66932529
3596.53804184
638.278939841
639.528514793
641.524338432
641.93604439
3599.92832353
3598.51723131
3601.34372639
640.889377012
649.165964354
642.297124267
646.261318756
3606.2196825
3604.49813866
3607.49504198
651.809397572
654.072376271
647.594851303
648.667411545
3611.65774432
3609.62139074
3611.17476923
653.468221835
653.430707498
648.401696444
650.114514663
3613.6070583
3612.15550092
3612.66392387
654.064705144
654.801127001
651.181788375
654.018939877
3612.58503079
3612.8138805
3612.55975239
654.637963883
654.138805736
655.119953053
656.39232715
3605.16389432
3611.42906752
3609.03454791
653.926202169
651.987279066
655.959105524
653.767371796
3617.04143555
3606.69332668
3627.93541749
653.258951312
619.534020334
654.960413498
623.151063971
3607.45553996
3612.12074818
3609.37838581
637.814497225
638.459910824
637.495524659
639.24904191
3601.24082805
3607.01009599
3605.28902595
639.333702609
641.850360161
639.83127006
642.201987788
3599.67103278
3604.1670672
3603.72453754
642.321765686
642.696726697
642.810339379
643.695770985
3602.6014836
3603.93818844
3604.66655012
642.815220666
644.637273
643.507118491
641.808928235
3606.90911779
3605.98689315
3607.50594799
645.452000869
647.008345142
641.575470736
643.341322931
3610.05161157
3608.88441076
3610.15893905
647.217537597
649.093023146
644.380542363
647.320661064
3611.91608719
3611.13348123
3611.97687009
650.027926599
653.5502059
648.193640725
652.006395293
3612.16667026
3612.44242067
3612.25724841
654.784360872
656.369430457
653.384075768
655.466589775
3610.57534963
3611.92284298
3612.65571071
656.216201087
654.707372722
655.848419109
656.692919346
3631.79548868
3615.37608302
3632.59473887
655.957620897
625.250232421
658.016620406
628.115682891
636.745592631
638.691163307
3608.15935018
3609.92783959
639.259738347
641.828866554
640.345550147
3607.19300539
3609.99356965
3609.74811271
642.479389074
643.579357487
641.675701835
643.789973126
3607.02994601
3609.46459746
3609.03018202
643.413010507
641.669945057
643.729741953
642.854389929
3608.38430144
3608.99949471
3609.3458358
641.331563666
643.056392588
642.837408218
644.281716332
3610.27466806
3609.92388891
3610.32202684
644.045952855
647.189663311
644.984696079
647.202838743
3611.55775449
3610.75529061
3611.12199912
648.179849553
651.585322787
647.874313725
650.869121043
3612.21216057
3611.6344972
3612.22156571
652.94771055
655.638418432
652.292128346
655.398779532
3614.14904846
3613.11101062
3614.88309187
655.981252018
656.822208862
655.931178321
656.902933159
3632.65352828
3618.18072722
3632.66973043
658.134241822
628.222026287
657.78174084
627.007238186
3610.41923733
3611.28731819
644.161835506
643.563161887
644.879030499
3610.25667761
3610.92342158
3610.69888696
643.693337845
644.918115864
645.39363747
646.665812008
3610.61773763
3610.61228418
3610.42963969
645.447464301
647.291155571
646.962904731
647.82198566
3610.78783875
3610.32298398
3610.49093688
647.972392171
650.583684282
648.24135909
650.675975113
3611.99682311
3611.07438128
3611.85503031
651.894727985
655.144323364
651.655222158
653.812967064
3614.99518587
3612.85522474
3614.70173325
655.738229983
656.768013923
654.21901997
655.200319225
3631.83400336
3617.19202099
3630.77332011
657.630640817
626.377492436
655.777708668
625.594721859
3610.51535933
651.023755134
3612.09768411
651.958847642
653.526250074
3614.85432289
653.81305301
654.512256485
3630.23875609
654.925733668
625.521004839
-23.0276444293
-22.9620902266
-22.9532742193
-22.8839036404
51.2806746311
53.6914732809
-22.9841775818
-22.9682619315
-22.9139517507
-22.8684021265
55.0612222055
55.2007879967
56.8093307258
-23.0040399493
-22.9138965338
-22.8935691282
-22.805638494
59.3442440566
59.3135696297
61.288248776
-22.8354267854
-22.8988183054
-22.7877310816
-22.8539538201
61.6205038104
63.3351996111
63.2536190948
-22.8881766523
-22.94031926
-22.8522185409
-22.881660318
58.7113023631
61.1879025635
59.5393703754
-22.9548385293
-22.9579023015
-22.8821267269
-22.8954793852
58.7500259547
59.2055746586
59.2263052834
-22.9084263565
-22.9068994729
-22.8644151153
-22.8857850267
59.4204580136
59.384753645
59.5932684094
-22.9153379997
-22.9679041062
-22.9044755395
-22.9653109292
59.9501610081
59.6782281769
59.8316297728
-23.0542314247
-23.1114807798
-23.0564912747
-23.1075387085
68.7296704725
59.2206501585
67.269697887
-23.154831492
-23.079901667
-23.152485547
-23.0677219694
50.2137862165
47.0098247418
50.2553146223
-22.9394519703
-22.8728323866
-22.9083241971
-22.8867284453
54.9899123015
53.0626425067
55.2768832298
-22.872826786
-22.8435928759
-22.9118633499
-22.8982404185
57.8551348887
57.0191006519
58.1433496383
-22.8068276013
-22.7599724129
-22.8648998666
-22.827287417
61.9492420148
58.8313978528
59.8406146434
-22.6629253922
-22.7746616128
-22.7354658929
-22.8090633726
61.8516476729
59.7294394724
58.3528254602
-22.8621126229
-22.8521118461
-22.8597435627
-22.84639186
58.8688723472
57.4121352112
57.2692479762
-22.8746362753
-22.8832151785
-22.8832918285
-22.8906859263
59.5148648295
58.0180660593
59.1811039288
-22.8940683516
-22.93046247
-22.8893513682
-22.9396094226
60.0364578059
59.9042520181
60.3779336507
-22.9304478356
-22.9830560092
-22.9622595532
-23.0011201753
60.2253905646
60.4834613861
60.7371202018
-23.0581915728
-23.1053285553
-23.0595678824
-23.1010942996
66.8872455233
59.3263298268
66.5560465184
-23.1456490808
-23.0662927486
-23.1426434138
-23.0632496337
49.2355212041
44.5135322966
47.7314395518
-22.9799671359
-23.0177191924
-23.0140957175
-23.0635280285
54.2583747972
50.3192622847
52.2494444891
-22.927583205
-22.8752064358
-22.9802620569
-22.9280682506
56.5939751186
53.3959373397
53.6595020815
-22.8332732235
-22.7945081807
-22.8864608338
-22.8485069626
55.8698448771
53.1581206429
52.4262568443
-22.779018659
-22.8023194279
-22.8329015231
-22.8375864458
54.8488024617
52.1191079203
52.3739549716
-22.8354466762
-22.850518711
-22.8596135175
-22.8968543795
55.8781819427
53.3226526227
54.6140914727
-22.899651006
-22.9065958235
-22.9502103956
-22.9440612061
58.6085999204
56.4493806128
57.8892979752
-22.9033983657
-22.9272275289
-22.9330889335
-22.9438756639
60.1153318526
58.6689353886
59.8977150145
-22.9626624928
-23.0223437587
-22.9737792851
-23.0295641398
61.2375871986
60.8130572811
61.3841333201
-23.0720586161
-23.1016487897
-23.0723718486
-23.0974414334
66.4619315721
60.1480928482
66.2329930467
-23.1502692123
-23.0660429366
-23.143522356
-23.0630328473
49.4884940619
47.0332612797
-23.0294292565
-22.9935391458
-23.0453387514
50.640582703
48.0046891027
48.9362373394
-22.9585129669
-22.9336137062
-23.0195428978
-22.992996635
50.4346920118
49.5412373872
49.9735318772
-22.9322282799
-22.9386939743
-22.9807362526
-22.9823353236
51.4444197381
50.4364154504
51.1921825006
-22.9396222433
-22.9431883309
-22.9778017348
-22.9724811939
53.6355601679
52.1556747836
53.4784095374
-22.9767638143
-22.9814879636
-22.9782493722
-22.9870027662
56.9516272924
55.3932767204
57.1231254061
-22.9709812651
-22.9841872985
-22.9889805525
-23.0055126505
59.8632934851
58.5979562779
59.6325852336
-22.9948335256
-23.0262981243
-23.0023000857
-23.0210620396
61.2139429773
60.0543019752
61.2036712859
-23.0643473007
-23.087356758
-23.055014033
-23.082377418
65.7153699841
59.4621104897
65.0625660936
-23.1337511991
-23.0540678919
-23.1319371766
-23.0529455266
50.5602734086
51.3889202321
-23.0124407073
-23.0110478743
-23.0092220163
-23.0075100067
51.8272328889
52.0516570187
52.8551576858
-23.0048254305
-22.9857511607
-22.9950095002
-22.975325257
53.781579939
53.8142125459
55.0548389323
-22.992795269
-22.994971251
-22.9636630838
-22.9734354106
57.5240310025
56.6554706027
58.1569528301
-22.9820452406
-22.997355002
-22.9654040388
-22.9765869442
59.660346567
59.1030636734
59.7051174435
-22.9955730233
-23.0106716505
-22.9833969885
-23.0060102691
61.1056570984
59.4633984668
60.8440974023
-23.0449884391
-23.0783884373
-23.0438514166
-23.0790794691
64.3623870711
59.1061927539
63.843730531
-23.1264337083
-23.0588465937
-23.1270724946
-23.0636346839
58.5727835781
-22.9773920322
59.518362488
-22.9945494874
-23.0208040094
-23.0163137671
-23.0395444395
60.4103551115
-23.0581303792
-23.0897966684
-23.0745738487
-23.1037168411
63.3064803563
-23.1316995279
-23.0616631371
-23.1372414891
-23.0661277391
1753.37055785
1755.32969289
631.69402447
634.042819208
1754.34279452
632.061241688
1754.37527208
1753.12527342
1754.7990354
634.882538731
634.077881585
1754.32346211
1754.00575389
632.890786407
1755.68602231
1755.83325897
636.260833514
635.297544285
1755.0075499
636.447425531
1756.23337019
1756.50615998
1758.14131813
636.932313704
638.383553841
1757.62269428
637.289628924
1756.96939512
1755.88033644
1755.57928509
636.169510418
637.990210317
1755.15755256
1756.26736418
637.216907558
1756.55947204
1757.57559608
638.848005574
638.413800016
1757.49579063
1756.73580286
637.848598377
1761.84370664
1759.88730925
641.788942
640.004782345
1759.34782069
642.280029955
1762.4573644
1764.77189831
1768.79744724
644.809960799
648.63471781
1768.07911266
645.328232016
1765.4613788
1761.46832448
1758.87711454
640.583839473
643.227475015
1759.09258501
1761.06213595
643.005186757
1764.31447225
1766.65776128
649.352600008
646.238335635
1767.45765907
1763.71149379
646.11773979
1773.51030436
1771.8672424
653.755413802
651.890955625
1771.04895317
654.243597148
1774.47255379
1775.5065833
1778.13956148
655.534000517
656.648732437
1777.10254803
655.856986484
1776.53495097
1772.40961945
1769.30071119
652.653092688
654.355989138
1770.25675454
1771.28958576
654.679553711
1774.25078737
1774.70905073
656.385950943
655.166049616
1775.83794631
1773.11527624
655.784952649
1779.77713443
1779.58612086
657.022432364
656.783512258
1778.4470103
656.663260284
1780.99311003
1780.93941326
1783.66486003
656.991773796
656.332693828
1781.88170592
656.453607724
1782.39678199
1778.40803292
1776.07610308
656.273903113
654.724531624
1777.18792994
1777.24720529
655.924979575
1779.42418181
1779.08846066
655.434203759
654.502993901
1780.27359126
1778.22205229
655.578145883
1782.77647037
1784.64896098
657.096624219
656.423693996
1782.6243261
656.286876351
1784.68418945
1782.3457801
1782.8282444
656.870094135
655.287242479
1781.29903542
656.029942109
1784.15164439
1781.28385361
1779.74635017
655.57259361
654.884810416
1780.97141006
1780.0566403
655.569130286
1781.08594338
1779.6094073
654.812387125
654.756171158
1780.31800793
1780.01032093
655.327400518
1778.88975107
1781.26306971
653.78853414
654.228497124
1780.04829469
653.510980206
1779.87758441
1777.94286888
1778.23119839
653.137439772
652.80144132
1777.28505495
653.033633143
1778.79474236
1778.50823983
1779.09373935
654.006737647
653.668234871
1779.3698494
1778.55027274
653.455483274
1777.77602621
1777.29220567
653.000202742
653.568787056
1777.11518675
1777.97076123
653.197135983
1775.78408056
1777.90265922
652.710244981
652.748100708
1776.63821242
652.616676299
1777.361083
1774.39223318
1772.82373083
653.011365499
653.062577633
1771.65249609
652.617570072
1775.7808222
1775.11840691
1776.28204026
652.929062713
652.94385423
1776.2827907
1774.83583275
652.638901098
1773.30989485
1769.98738618
652.531410752
652.285522286
1770.21429265
1772.86221592
652.374527143
1758.94222753
1767.18114095
679.278568201
655.395118156
1766.26621769
664.326506782
1758.20116494
1745.5776363
1742.0616436
738.150894611
627.752327451
682.740061355
1760.70163518
1740.06691189
1758.83837259
1765.61772975
654.63662651
658.796020995
1765.51627697
1759.31639133
661.880381083
1744.30952488
1770.81814054
609.674578495
667.280900098
1745.8033826
674.147188504
1764.67497071
1766.16839289
1770.12789679
632.574260511
635.362884974
1764.80480374
634.113152866
1770.81889678
1762.88919411
1758.38229437
631.139462766
633.217669323
1760.81931428
1760.68798426
633.214791546
1767.9927302
1773.63371528
636.305271729
636.800426813
1770.24829432
635.478723945
1772.05824604
1765.00368241
1765.50402065
635.462159596
636.73582969
1763.02335687
1767.50655226
635.18449887
1758.55464141
1756.95900906
633.698754349
634.221328768
1756.18952717
1759.33606229
635.59388641
1757.96734149
1755.67280842
635.317763605
638.15777689
1755.47096933
1757.49616968
636.839680565
1760.68674522
1764.12247915
636.503063678
639.159245369
1761.59485505
1763.15856867
637.599760637
1759.87064075
1761.37176073
639.776126319
640.199814243
1759.20021083
1762.22076871
638.749855705
1757.48129293
1756.24242502
638.809693724
639.394867378
1756.81768563
1757.49542538
639.800016874
1757.6770851
1757.41496472
638.908779348
640.009907126
1756.82515979
1758.36675257
639.666060601
1758.46240973
1760.73033328
640.55192342
641.810354993
1758.84061933
1760.11602314
640.857682167
1758.46202841
1759.97031091
641.000081574
641.836636556
1758.76075345
1759.85620571
640.837926705
1760.39815535
1758.57187767
643.180247592
641.197518681
1760.38099075
1758.91434698
643.19005703
1762.45402432
1765.41688781
646.326168227
648.472083746
1762.70854971
1764.93808591
646.008091984
1761.23435631
1760.69030608
641.60897158
643.346215155
1759.62905857
1762.14023609
643.206592031
1762.99082114
1765.78492092
647.429396464
644.838905745
1765.03229048
1763.90010171
645.360186565
1769.55142533
1767.93692061
653.560086802
650.749129188
1770.12300012
1767.36398435
652.115924629
1771.54701695
1773.71935222
654.214457272
652.312995941
1772.05269908
1773.19708047
652.596254874
1769.36788485
1767.57927283
649.26714784
648.381114445
1767.25144208
1769.51905464
650.320436019
1771.12811102
1772.50830887
650.453768208
648.715686737
1772.70010994
1771.19756232
650.659419692
1775.72972139
1775.12392677
653.113913859
651.726860371
1776.38315102
1774.51245709
651.477182009
1776.65865329
1778.17005654
653.043409357
652.289655208
1777.34291017
1777.46092031
651.619768735
1775.2021216
1773.55769472
649.964992857
648.568732141
1773.9463365
1774.60587335
649.896783444
1776.16263914
1776.21922492
651.170436146
649.155286724
1776.90062129
1775.50508049
650.277695514
1778.36958751
1778.84607443
654.41255334
653.220686219
1779.24855042
1778.02337892
653.788015096
1778.66108228
1779.34667983
654.7229394
654.707370115
1779.37514304
1779.02379386
654.339843218
1777.85757255
1776.86216436
652.216790078
652.007933428
1777.45220661
1777.42511112
652.862944163
1778.1770322
1778.65037333
654.395953218
652.937593513
1778.75299577
1777.93900597
653.561851705
1779.16260599
1779.1677724
654.44661525
654.930504694
1778.81218129
1779.19659308
654.956633932
1778.72590437
1777.5141743
654.333669524
654.942769687
1778.25083743
1778.00958476
655.055058828
1779.50693257
1779.29842989
655.142003515
655.769245101
1779.24285864
1779.66660911
655.50234984
1779.09610456
1778.7473938
655.767244986
656.230417021
1778.48581048
1779.30617573
655.883939953
1775.18112417
1776.43691526
653.363137242
654.557020239
1774.79898529
1776.89224606
653.831238936
1773.12411525
1770.03562948
652.392713006
652.212764313
1772.61095757
1770.86971207
652.729268286
1775.87516137
1777.96128553
655.252968563
655.243915841
1777.45074658
1776.67080256
654.5019621
1774.01319332
1773.14605427
652.968108037
654.212277775
1771.9673882
1775.03556832
653.458287423
1762.8929988
1766.70584658
658.409702681
653.399383267
1761.37601783
1767.97225108
658.331329782
1751.54764194
1775.92290931
666.094205619
620.792478166
1749.76918333
665.641218605
1778.58660095
1764.45995158
1770.53700686
654.144826349
659.677681024
1769.30163112
1765.61266063
659.01388183
1753.14308812
1780.92474735
621.759773815
666.283180435
1753.85734139
665.916182946
1780.22174573
1773.89993451
1774.99583829
637.776784566
638.064858964
1772.20947034
638.308240306
1776.20047673
1771.80459669
1767.82466899
637.964143834
639.163520984
1769.77649725
1770.03368691
638.637532215
1775.14953521
1777.35851886
637.972024808
638.122157195
1775.84048747
638.473997075
1777.0195651
1773.29269915
1772.86889838
639.443514502
638.781944012
1771.66779131
1774.28097819
638.980228625
1767.66814976
1766.45311889
640.226817353
640.011310092
1765.46408276
1768.67759498
640.811092695
1766.81978427
1763.67538908
641.167728542
642.290109105
1764.53260012
1766.09270365
641.606339268
1769.53919079
1771.81409627
640.117532144
640.63639182
1770.42964126
1771.13373513
640.898816706
1768.89217112
1770.54911354
642.395482009
641.456339427
1768.40219559
1770.73515823
641.683174291
1765.02496769
1762.98564886
642.599404741
642.785941911
1762.33131741
1765.5061817
643.108647509
1764.75770856
1761.82446729
642.621932489
643.264368016
1761.94538405
1764.69076851
643.236375228
1767.74054406
1770.4068933
642.93008073
643.265611069
1768.0352874
1770.32628522
643.311247858
1767.61148899
1770.25161008
643.627954728
643.624887729
1767.53445382
1770.31132137
643.598708149
1765.37800109
1762.21286853
643.371223511
643.165894408
1763.11039355
1764.87334449
643.098481058
1766.01668398
1765.95863761
644.017647868
643.378152218
1764.50883029
1766.95313739
643.130210017
1767.47956201