/*--------------------------------*- C++ -*----------------------------------*\
| =========                 |                                                 |
| \\      /  F ield         | OpenFOAM: The Open Source CFD Toolbox           |
|  \\    /   O peration     | Version:  v1906                                 |
|   \\  /    A nd           | Web:      www.OpenFOAM.com                      |
|    \\/     M anipulation  |                                                 |
\*---------------------------------------------------------------------------*/
FoamFile
{
    version     2.0;
    format      ascii;
    class       volScalarField;
    location    "14";
    object      p_rgh;
}
// * * * * * * * * * * * * * * * * * * * * * * * * * * * * * * * * * * * * * //

dimensions      [1 -1 -2 0 0 0 0];


internalField   nonuniform List<scalar> 
28582
(
19529.0664391
19529.1181857
19529.2450035
19529.1756549
19530.0684236
19529.2754333
19530.7501553
19529.5458485
1281.31582237
1328.41264216
-0.104971235792
19530.1453104
16841.6501024
16745.9803881
19529.0566221
19528.9556898
16749.1533746
19488.2847092
19480.2252949
19528.0543107
19529.6127955
19530.8288385
19528.1901328
19529.5170725
19530.7409024
19528.7600942
19528.5951964
19529.6085969
19528.61735
1351.04367269
-0.111996054345
-0.0596239828349
19529.5508448
19530.5288506
16951.0357042
16915.0382112
19503.8125519
19528.2237292
19528.2836659
19528.0095146
19486.8438409
16593.4092404
19479.1200846
19477.86616
1303.7683018
1345.91145831
7.43543199239
7.44022466818
1313.35938822
4.75470391425
19499.1256732
19497.3934009
16802.6775701
16841.8716662
19499.2971587
16795.7686579
19497.3666116
19496.237681
19495.2983857
16767.5078629
16757.9588701
19495.0120518
16767.4320422
19496.285216
19491.7158577
19494.0654116
16757.3249516
16758.24423
19493.1441643
16756.8662814
19493.460458
19492.2574549
16731.3871607
16708.132477
19490.3105536
16749.0226739
16742.0960713
19493.1639585
19478.6679796
16667.9162497
16649.0783189
19482.5448278
16699.7513716
19481.2362484
16710.885714
1250.28779593
3.56714435488
1219.14467448
1243.2605072
3.2837681997
3.56471272295
1367.85223244
8.70388643322
9.11146548214
1388.16961006
8.61163996009
1373.04286076
7.49526368451
19500.5178353
19501.8024784
16948.8724438
16957.8905082
19498.4922761
19503.084952
16957.5351039
19498.6408873
19493.8309873
16935.0181064
16929.6072569
19495.9386756
19497.0675924
16945.5078489
16943.0298537
16912.8042194
19501.7609251
19502.3058421
16917.9151139
19500.3177153
16936.5941426
19491.6475105
16700.2828353
16657.5677412
19486.312043
16666.7449963
19491.3069876
16606.3228589
19486.2188186
19489.986028
16633.8004652
16564.3808502
19490.6198471
19486.1515173
16580.070295
19477.4788131
19477.6129088
16627.5264053
16608.3241764
16567.137208
19479.046391
16587.3079461
16543.4431579
16529.1341241
19478.1484003
19479.9144152
16555.1537118
19480.3388152
16569.9770989
19529.1488133
19528.2884354
1397.06508641
-0.0651596951545
19530.1297139
16861.9706608
19528.2219714
19528.8624828
16563.8560141
16528.8383047
16547.036187
19529.7438683
19530.7111618
16551.9905526
16575.6860112
1273.91752061
1408.84424358
1423.63526991
6.82983567689
7.62452685967
5.92083586102
1433.83798544
1432.48519271
19497.3328606
19499.5251265
16872.6006498
16808.3238068
19498.4968706
16821.5175447
19497.7771495
19484.9682323
19489.1515964
16536.8570903
16546.7121452
19488.2524773
19485.8383453
16528.5706681
19479.2085506
19477.790598
16550.1691461
16526.0539104
19480.2074048
16535.2932389
19476.4603837
19477.0030618
19469.2722334
16546.8870296
16532.0038529
19473.0667892
16539.7980718
19473.4549539
19468.5599091
19468.3066143
16544.1875186
16562.7885937
19469.0497439
16544.0258276
19468.7871422
19469.5258017
19473.5072221
16554.2049195
16567.2206194
19471.9093238
16546.2073675
19470.2962537
19544.132357
19538.3177952
19535.9549013
19533.9166648
949.501222078
1073.1365938
987.592475404
1075.53955979
1047.04240066
-0.0963371156459
0.123081868326
-0.0949047189808
-0.0221071710771
-0.176890422182
-0.169469983641
19545.298099
19544.2314613
17690.2497824
17687.9222289
19547.4893355
17693.4530883
19542.0262995
19539.4245414
17660.4804855
17497.4082977
19544.2721305
19540.6152271
19540.158736
17661.9860378
17608.8285168
17493.5287279
17407.1333768
19537.437151
19533.0460292
17525.903671
17002.6512214
17333.8464311
17019.170237
19537.8665063
19536.3961772
17467.652667
17387.5403752
17383.9117886
19532.9332592
19534.9948824
19532.8336201
17326.8122699
17053.7528666
17332.671187
17127.1882816
17324.7408332
17132.3344898
898.068012151
890.175356044
935.368848377
0.542463631632
2.50263086376
0.310591064346
1.08892033637
7.12461761932
14.9719212312
7.37137625764
16.3655306248
906.288737322
944.27406208
1005.95879363
979.29856267
1028.08528598
1.34988472121
3.25527810642
2.0533643027
3.6032243903
1136.27578964
1084.15285154
1140.37307995
7.17631890641
16.3806932191
6.07351606061
12.1129266871
1027.46595567
1016.46703534
1.26382894366
1.36614534955
1.36127639603
1131.73271186
1058.78039179
1111.50528513
2.61504081183
5.19735974021
1.62807560984
2.40138906439
19531.0174548
19528.1658985
17686.7422318
17696.992713
19528.4049137
17693.8082142
19530.7506653
19530.1585238
19526.0850346
17697.1778801
17682.4373169
19527.5775438
19528.6055523
17693.443916
19529.4894143
19525.5509163
17702.4033254
17701.7847185
19527.6493723
19527.2334872
17711.4928666
19521.4618451
19521.5278142
17645.0336358
17600.5956956
19524.2586972
19518.1784418
17591.0886317
19517.2721372
19511.8962733
17547.655796
17488.8911212
19514.3339836
19515.4303494
17538.8254174
19517.1426417
19521.5813313
17656.9190952
17597.7961203
19522.4366336
19517.036283
17587.3459147
19517.4586175
19523.685099
17640.6551369
17517.069354
19523.1591724
19516.7964658
17559.3398056
19513.1660519
19511.166838
17544.0765817
17480.9664719
19513.2805276
19511.0264197
17529.6999882
19513.4054289
19510.2525782
17455.6041408
17449.5931601
19512.9123738
19511.0196174
17498.7018082
19512.1877193
19523.6533045
17396.0902396
17428.4544841
19519.1039945
19515.7617941
17313.659637
19506.4259795
19501.9349766
17207.3418121
16970.9825523
19511.6240618
17147.0282875
19498.424097
19508.6596374
19509.3113214
17380.1527041
17251.1161692
19511.9981603
19506.685878
17283.1734845
19503.6195291
19497.8928305
16999.722589
17135.082658
19502.7404633
17149.0086703
19496.8498798
19509.6384086
19510.1487056
17454.3376052
17451.7428731
19510.3941578
19509.3692848
17441.0042554
19509.8927809
19510.5280265
17424.8595584
17380.7489227
19510.5779238
19510.3630935
17412.8686903
19510.2045159
19511.1303221
17379.6502877
17412.2691377
19511.2992974
19509.5449899
17410.2899778
19510.8578546
19510.8428568
17255.6534515
17325.2574125
19509.2156076
19511.2696999
17263.5573643
19508.742005
19502.2982093
17157.3333884
17086.2711208
19506.3580389
17174.8760377
19505.7794841
19513.970292
19513.1194779
17327.551363
17274.3437123
19513.0065399
19514.7625968
17267.7089845
19512.4494223
19512.8815109
17111.3431225
17199.320795
19514.3570773
17189.1902026
19510.4592935
19513.1800023
19511.9897395
17269.2491174
17311.6671064
19514.4145146
19510.4015827
17254.1388231
19515.0535731
17199.7808883
19515.3640191
19527.8072207
19528.0012218
19528.8253687
19532.6850592
19535.0042226
19547.2045727
19527.9987314
19528.1296055
19528.9520803
19532.4608205
19534.385171
19547.2046229
19516.0335352
19521.2751638
19520.0470325
19526.7547676
19532.5280225
19536.8956127
19542.8166544
19524.840565
19517.3684641
19521.4350692
19524.9845495
19528.1386325
19530.9124265
19532.9780073
19534.8854874
19548.7871069
19523.1555927
19523.2644879
19524.989455
19527.4788319
19530.063314
19532.0057985
19533.1474604
19547.9792669
19526.3471725
19526.0479353
19526.7734697
19528.4346085
19530.6106665
19532.6383317
19534.6770945
19549.1458577
19530.4122269
19532.3485674
19534.6179634
19547.9918236
19513.3663314
19518.7960813
19523.4795201
19528.0751994
19535.1806237
19542.9361948
19604.6666653
19419.7307316
19515.9747023
19520.6883643
19527.332104
19530.3291252
19531.7319401
19533.2618316
19535.4138788
19542.855173
19521.9377669
19523.5778505
19526.1351812
19528.3282869
19530.1051144
19531.4707531
19531.9237808
19542.3964288
19526.2101702
19526.1857328
19527.2056565
19528.9745357
19530.8327607
19532.2119441
19533.3419021
19548.2294869
19530.453514
19532.0845807
19533.7343943
19547.7973671
19510.0129528
19516.7992445
19524.1465446
19526.2436371
19528.3540615
19526.5170954
19516.5204016
19457.3085214
19514.0764336
19519.8000259
19521.6113224
19526.4053386
19527.7882928
19526.0132354
19516.7975161
19509.2181654
19521.0497586
19522.0322371
19524.0035441
19526.6525266
19528.0572257
19526.794298
19520.075693
19538.5688093
19527.4834635
19526.1993495
19526.1568807
19526.4159909
19527.5524658
19528.6833432
19528.3279166
19525.4769782
19544.0892892
19528.599524
19528.1721983
19528.3154576
19529.0302705
19529.0684347
19528.0108009
19544.9914192
19529.6096729
19529.1852702
19544.6399561
19509.1022946
19516.3633227
19524.5288163
19529.961298
19532.2109442
19533.8840952
19531.2419822
19507.9548653
19510.9202543
19510.8817077
19515.1718536
19520.7666024
19527.2118711
19530.8861848
19531.4336867
19528.1088765
19515.6732565
19529.5127205
19521.8207299
19517.6734166
19518.280257
19522.6157436
19526.737221
19529.1385658
19530.4286036
19529.0962456
19529.3965147
19527.0492779
19525.6405508
19525.1225769
19525.7757829
19527.7023737
19529.2650641
19529.916198
19530.2667251
19535.0224799
19529.2119043
19528.5311768
19528.8107998
19528.7581682
19529.0223979
19530.5663931
19535.6358071
19529.2418327
19531.053302
19535.2343584
1309.42164753
1370.48712166
1455.37876804
1454.29703922
1413.97076656
1419.84468523
1441.56927035
1486.3916876
1188.77409477
1291.47979914
1353.51353771
1413.39814692
1493.93583442
1405.11297708
1424.8493012
1438.31487354
1448.65864722
1431.74450193
1178.67835271
1296.08742934
1364.0317195
1370.61924791
1352.28249031
1348.80413688
1378.78089236
1431.40163121
1460.53683958
1449.50468353
1231.18166892
1269.49590471
1272.74851372
1274.79093209
1305.59690188
1360.05721599
1418.09152645
1455.81994861
1446.48159314
1263.65373365
1287.99859819
1292.04976521
1368.87399676
1422.16240788
1443.25677354
1435.59611944
1432.58858566
1432.76275455
1423.7618034
-0.132665620985
0.480283733939
1.35777564824
1.53627399999
0.155983766592
-0.118105901077
-0.064325349421
-0.0597077169734
-0.148085581352
0.306010961319
1.1002094827
1.22308393394
1.29090662516
0.0495421769341
-0.0490182039465
1.25578204508
-0.0677750036718
-0.108667391745
-0.132743591916
0.361399368018
0.954953068207
-0.165574328643
-0.192340438179
-0.0952480672391
-0.0295785910374
-0.0550740772007
0.933516771688
-0.092820537926
-0.188700932037
0.528755712606
-0.150984703094
-0.154785098197
-0.0701430255955
-0.0265587648097
-0.0519276662014
-0.0504288891252
-0.0782016908177
-0.15504149332
0.560788759773
-0.0992127300416
-0.0542482381766
0.751711179371
-0.0718444876165
-0.109884628655
-0.164869739093
0.566001112736
-0.0970023060493
-0.177626238565
0.587866008847
19518.9046729
19515.9749662
19518.8994838
19514.8847804
19518.3835338
19514.9929691
19518.149964
19523.0681553
19521.4133623
19523.411402
19520.9000871
19518.4175034
19520.3851281
19520.4168059
19519.3354854
19519.7269598
19520.448596
19516.8621343
19519.2615332
19519.1643741
19520.3556544
19523.1954832
19521.8060072
19523.4847705
19521.183326
19522.2295395
19522.0485543
19524.0644439
19516.6137612
19513.7439253
19517.0101552
19510.9780911
19515.0020021
19511.4403796
19515.7047777
19520.4547739
19518.8814783
19521.2646671
19517.3832341
19519.1725514
19518.0757983
19519.3512369
19518.5019752
19518.5759189
19520.1333931
19513.931656
19517.8812028
19517.1500763
19518.8244712
19522.0684578
19521.6614437
19526.3178789
19520.2014952
19517.8848528
19520.376787
19524.6047968
19514.0813213
19511.59231
19515.2052357
19510.0174981
19513.7339303
19510.9916642
19514.3262823
19518.8274705
19517.7858177
19520.0736568
19517.1675009
19519.779628
19517.5721222
19521.3334238
19517.4030772
19516.6537762
19518.2214366
19513.1074415
19515.6598258
19515.1727225
19516.6448126
19517.6997585
19519.6653911
19522.9553729
19518.1776869
19519.3467951
19518.452674
19521.6059027
19502.4895139
19506.0064613
16453.7363072
16328.3959807
19512.6754687
19510.0003643
19512.7275104
16435.3606775
16336.7440323
16339.5911898
16270.9969265
19520.6941094
19515.8271956
19519.7688516
16329.6785098
16440.6573529
16245.6197669
16311.2789558
19527.6138774
19523.0424835
19526.0115927
16494.9559977
16576.0744623
16335.9313392
16453.5935917
19531.287173
19528.5560528
19530.114456
16618.02112
16773.195736
16501.7676367
16614.0243466
19533.0216574
19531.0719281
19531.6555293
16783.7552927
16712.4977824
16613.1882761
16603.9050062
19533.811542
19532.0210653
19532.5000869
16654.1953289
16530.5832624
16590.5577063
16557.2077024
19522.7518741
19531.9968949
19524.3830809
16505.028736
16518.9185216
16546.8737276
16484.7258153
19494.8840402
19510.7485964
19516.0664929
16704.1737879
16212.1649917
16589.2809196
16193.30969
19528.1610639
19522.1529139
16806.7630177
16422.6205795
16907.4467998
16607.8087616
19509.8523248
19516.9578602
19514.1930221
16389.4399251
16334.8519473
16549.8217455
16424.626128
19512.6851324
19513.3887075
19514.1082033
16331.6881497
16224.1221292
16384.1153399
16285.3001517
19517.90303
19515.9493452
19518.8318514
16207.1671521
16252.4378724
16281.4377777
16376.2246357
19524.1494245
19522.1373567
19525.2733402
16294.7341384
16462.0525424
16427.4425793
16576.5775843
19529.5228723
19527.6318855
19529.2516682
16532.6165503
16611.8386916
16612.2515266
16642.6078006
19531.4797387
19530.2727788
19530.7792083
16614.7941633
16613.9630869
16622.0035089
16589.0128536
19530.5375314
19530.9574698
19530.7080404
16601.6186393
16557.1555562
16598.7513663
16608.9790905
19523.1231454
19529.5588177
19527.1293362
16547.5922615
16445.6751954
16594.4483638
16480.6249331
19534.6055268
19524.5924989
19545.9022794
16549.9315096
16234.0401961
16582.4786332
16283.2809777
19525.5413652
19530.3243048
19527.5323337
16950.382956
16668.8097158
17057.4565262
16846.5699057
19519.2123194
19525.0767091
19523.2946865
16601.7526127
16475.3945008
16779.6091428
16688.5195512
19517.2790056
19522.0261998
19521.4937597
16437.2437879
16351.4547919
16674.7011693
16678.9123079
19520.2385568
19521.6920315
19522.4794012
16356.6351828
16432.219268
16688.1442899
16672.1504715
19524.9259825
19523.9825952
19525.5955278
16479.0081323
16618.114339
16671.2963891
16683.2811283
19528.2018374
19527.0709832
19528.2950854
16625.0801511
16625.2713922
16685.9239127
16673.3214068
19530.02149
19529.2672457
19530.0561252
16617.8998253
16623.9952327
16670.4665545
16676.3749873
19530.1339954
19530.4435726
19530.145323
16626.1207107
16614.2164435
16664.4947214
16580.7959716
19528.2926107
19529.6525303
19530.2994406
16596.5273459
16489.8781075
16554.0710365
16523.5656464
19549.6529453
19533.0419882
19550.5594985
16587.4482096
16325.5753194
16627.0207696
16393.1587115
17073.4305109
16879.946458
19526.1994006
19528.015151
16827.1901837
16765.7751467
16922.9342627
19525.21816
19528.0597917
19527.8257668
16757.5388301
16766.9716834
16933.2445544
16908.6040823
19525.215758
19527.5851197
19527.2687159
16763.8564271
16717.0118018
16880.3641974
16791.2070991
19526.7395643
19527.339895
19527.7073256
16701.295667
16691.8666878
16776.6924904
16771.9818928
19528.5786102
19528.2840193
19528.6152503
16698.6688071
16695.9879738
16770.3996276
16709.0905711
19529.6191729
19528.9130107
19529.0623496
16676.7300192
16638.5175982
16667.8716724
16592.7525319
19529.8997876
19529.3491413
19529.8314581
16634.2655899
16598.8599866
16597.2402766
16607.3093661
19531.7119852
19530.6964464
19532.4928132
16583.520344
16547.4850849
16611.4420731
16563.305447
19550.6539806
19535.896066
19550.8032531
16655.5509352
16425.0958674
16682.9532381
16450.9716601
19528.70275
19529.5772079
16875.2586834
16790.7400125
16746.8441608
19528.5646824
19529.2304066
19529.0242079
16777.2994
16778.8910212
16748.2156243
16740.9103482
19528.8532942
19528.9311596
19528.7244273
16798.9306399
16705.5989233
16753.9190522
16618.7484119
19528.758897
19528.559417
19528.6145543
16659.8637608
16568.5405342
16575.8405554
16524.4551538
19529.5168454
19529.0037385
19529.608573
16572.0952659
16592.6517602
16529.1793393
16551.7160911
19532.5962978
19530.5624405
19532.4408024
16603.3496046
16555.0337527
16575.5746735
16517.1201833
19550.0070898
19535.0256292
19548.9886957
16676.3595491
16455.7600499
16635.7163635
16448.3782659
19528.5740759
16528.0147173
19530.0547366
16532.5208161
16546.7391575
19532.8341431
16564.7006528
16507.48675
19548.4958176
16624.4149573
16447.3344436
11.5735819987
10.0554128862
15.0244668367
14.3976240641
1282.73761328
1315.15989549
13.42783202
12.1916682012
23.296720844
22.7891758939
1339.82121239
1327.95019677
1352.49226802
16.3695325816
21.0129548066
29.6907871866
36.3522964589
1411.53384811
1396.27133854
1440.98491779
32.0496235196
21.1142336813
37.1487381711
27.3454199599
1475.43498407
1495.46204677
1492.0366202
11.2912511098
7.50559601748
19.3523453476
19.1595197804
1422.07782023
1463.47678083
1432.69929649
5.59268668879
6.3396138921
12.3416756364
9.95415035056
1416.9894539
1423.7503973
1425.22300557
9.27220075424
10.6212910552
11.3307960276
10.4329698419
1429.05118481
1428.74758486
1434.686437
10.5353696807
9.55095241573
9.46339894521
7.89808314495
1450.29427059
1441.05451432
1447.93274408
6.51266478218
3.52035045405
4.83777929154
3.05008279312
1609.89743725
1438.2646557
1569.18889772
3.81158701319
7.24606255587
3.72397455157
11.9814347038
1239.99719829
1186.60748157
1247.15582198
26.8916620396
29.592071788
24.6898935144
24.5149983378
1328.37512413
1305.50974887
1345.02935707
30.2820218737
29.1573350682
20.2171373556
21.2092787121
1372.30896389
1374.07564283
1392.06158177
32.2372398812
35.4230740536
23.5055746496
24.7241884724
1471.55653012
1407.85777622
1433.76209594
26.1409133136
17.5511438325
20.3309586273
16.1022479641
1467.51395153
1432.97012795
1403.42112333
11.5608271835
16.1451122268
11.3470515354
13.0745873465
1401.34613459
1358.69262596
1366.14009662
33.1241211216
19.8794967866
30.835185302
24.1847870908
1433.73764106
1407.99612921
1432.06094065
9.44911065026
8.80532791833
9.28920075796
5.91316713763
1445.27280478
1443.49899506
1452.63773857
8.26882335085
7.15424454925
5.67308715962
5.54805842581
1453.90056739
1455.94108925
1463.13117886
5.01152283324
3.35304028657
4.7524691878
3.84358012274
1565.45098775
1438.99932222
1560.98211739
4.0299840206
11.0537956411
4.55359043597
9.7526467208
1237.90811591
1158.7772159
1213.48908701
18.3397157133
19.2266022239
12.6819364639
16.392685827
1335.63052435
1267.18491517
1300.24103656
11.8172165587
13.25748638
10.2164477326
11.0998421984
1375.85281949
1319.6772628
1323.29842291
14.8811662478
15.29047436
12.0750561563
11.4075980655
1360.84313349
1313.98722602
1300.39429155
14.3557428519
12.8646058313
10.3923238535
9.40978565105
1342.35389306
1295.14584957
1301.86470433
11.753752541
10.7667143449
8.90061069523
8.2363059278
1366.29132653
1320.78512344
1343.66602416
9.63019748564
10.4877767802
6.81013315795
9.2972168931
1401.77370696
1354.48065784
1374.00417922
21.1460982882
16.4745450942
24.8706864289
27.8429474259
1448.49590203
1416.87370878
1446.54611601
6.14921293334
4.56469611802
9.83297748005
3.86346316013
1472.56113715
1463.59155015
1475.70520448
4.49327223158
4.24562306071
3.85843538048
3.9462386175
1557.90894722
1452.95032265
1551.88693832
5.40742572094
10.8237971613
5.56019127234
12.4825889521
1255.2642878
1213.55874275
7.24612302133
7.72698884938
4.37187094034
1274.00078446
1231.35503726
1247.04443999
8.15879872968
7.46042625399
4.74016470485
4.83284043094
1270.12789133
1257.52593119
1265.30720965
6.85449254259
6.37429070428
4.85221065013
4.97289872687
1288.48701401
1272.12398793
1284.91475863
6.28934739946
6.27156904637
5.28580765018
6.18010307646
1327.41636242
1303.06223476
1327.0940572
5.90437254354
7.16626313833
6.5387282962
6.00609342057
1388.93822394
1361.441676
1392.40885812
7.42015177713
8.041202173
6.02253986251
6.62424726522
1442.87489668
1418.31159039
1437.31726387
7.20313085832
5.84194717015
6.74757209143
6.83177632157
1471.43944746
1447.44046562
1469.44270568
4.52480186495
4.48648283168
5.69125128969
5.88205377195
1540.77728644
1440.11688802
1529.0696391
5.7604284223
12.9625164824
5.92383542956
12.5184578414
1278.99078903
1294.92474008
3.83249393983
3.89349031564
3.76177689064
3.56498907859
1295.57817813
1305.7515018
1314.7146146
4.06964065424
7.92273883119
3.51945314894
8.4000029479
1323.89596278
1305.85485964
1344.70349504
16.5438583066
10.8491309799
23.9352882939
12.1033449715
1399.06369765
1385.76943628
1411.52905029
6.8123885002
7.58516273667
5.95797034745
6.74582192531
1438.19345837
1428.73201307
1439.74663349
7.40531841273
7.3042813777
6.65908404237
6.62842041865
1466.87198097
1437.15034394
1462.78415857
5.77357905557
6.18154458456
5.16235710191
5.90468064707
1515.93509647
1432.36877189
1506.20834668
6.49188524076
12.6902964076
7.15781013685
12.9598906043
1419.11847813
6.63493026108
1437.28577087
6.2849928968
6.05956832972
4.84989608838
4.47175147811
1456.56582935
4.62773822802
5.11801329585
3.52162233195
3.43948889354
1496.12436086
6.79711398037
13.0958859442
4.87052636375
13.7352633349
19474.7021584
19477.5623151
16462.6560781
16384.8928926
19471.3839894
16383.4300091
19480.5981324
19469.0134858
19467.1851051
16360.5210692
16320.9213497
19468.8765161
19466.7128992
16339.1331118
19465.9933421
19473.9421119
16406.1144507
16380.8534945
19468.7986302
16365.1614222
19469.6346668
19462.5859785
19465.9436299
16380.3025963
16304.5492915
19462.9047218
16341.1491608
19465.7477144
19468.5882511
19467.8710427
16369.0076802
16335.8536187
19469.1499914
19468.0104853
16356.8216759
19467.2476933
19465.026077
16273.8539641
16316.1126307
19466.3067405
19466.7499257
16324.8607546
19468.7952969
19468.1887508
16344.0364036
16286.5225199
19465.2213677
16298.5250362
19471.5436009
19471.8148554
19475.6843621
16384.3184032
16394.3723122
19473.9357024
16339.6317963
19474.4343456
19469.6860775
19464.1940702
16254.6232133
16253.7951476
19467.2272024
19465.960647
16269.2351144
19472.1753733
19469.6142578
16351.0793205
16280.4877578
19473.2646099
19468.2609276
16308.0199884
19463.1778491
19471.8306371
16531.0047679
16436.8045083
19471.5032099
16469.749201
19462.7549462
19456.8966753
19454.4985035
16550.6559255
16520.9819364
19455.7626316
16491.4175907
19454.9989991
19464.7982543
19467.7145789
16383.3754689
16361.6688966
19470.2288054
19463.0093022
16409.813755
19462.3577171
19458.8102638
16479.50798
16395.0086933
19462.6103376
19459.423675
16439.77597
19461.4582898
19456.6214766
16671.0736018
16561.8482051
19456.9887196
16609.4896411
19463.2845953
19472.28729
19491.3460923
16721.7423426
16695.8950103
19486.3563212
16652.8368829
19476.3639883
19467.850882
19460.476006
16522.3122528
16542.231589
19463.9815243
19465.3821862
16559.2948033
19476.1731467
19485.1637671
16642.4850388
16581.6729023
19487.352778
19475.01022
16594.9095198
19505.3044329
19502.6456666
16780.7036609
16708.1539082
19497.979406
16707.9299579
19508.5920033
19507.8760141
19508.7607295
16759.0239032
16652.058731
19506.4224641
16687.8965083
19510.6166271
19506.7885951
19493.8993477
16661.7864381
16616.9909774
19498.1038552
19501.0114139
16672.8097483
19511.5918807
19511.8797666
16634.3289458
16609.9513844
19510.9883049
19507.8209323
16661.3950127
19501.9205521
19505.8738397
16596.3682671
16609.0034248
19504.0300073
16565.1554429
19502.7801899
19499.2255981
19497.8139467
16558.7708574
16523.3297402
19497.8391363
16541.0863995
19499.2763636
19507.1838259
19511.5062321
16602.6615705
16572.1436721
19509.3116151
19510.5877181
16569.3806951
19504.2417315
19504.3468716
16537.186653
16565.7011791
19501.2531334
19508.1422602
16553.5645956
19494.380845
19496.1683912
16509.5777722
16511.3841616
19495.9185914
16506.5179181
19495.1312782
19492.1682015
19488.1624677
16507.5290044
16507.4373928
19487.7376946
16507.7514156
19492.5560851
19493.7732138
19498.8804936
16525.7146181
16533.0776274
19496.924198
19493.9398685
16516.4638843
19489.7744428
19482.0664657
16486.3819845
16509.3880326
19484.4233005
19488.2369012
16504.1496121
19448.9813699
19474.9107906
16538.3271772
16591.8287324
19475.1438122
16554.6263974
19441.7643996
19378.0894038
19304.7225607
15671.5597209
16126.992773
16134.3092459
19369.4950643
19274.8354547
19448.2667859
19471.5901007
16590.2758211
16492.7556225
19473.6663369
19448.4696103
16480.1729468
19372.083504
19430.1587191
16026.2826369
15626.2673459
19385.0434874
15592.434484
19410.1653517
19483.0821703
19492.1346627
16630.8419192
16807.3823482
19484.294925
16665.0724381
19489.905375
19477.010452
19471.5014933
16503.6189478
16470.5763741
19476.61211
19472.5674744
16559.2594458
19483.5717228
19492.7312526
16854.946485
16796.5279968
19487.789666
16719.3079683
19489.6134616
19477.5815581
19478.544996
16531.0048827
16695.0995977
19473.4810219
19482.4338223
16614.0797618
19465.6618686
19467.9957765
16338.4425683
16434.8124643
19463.9215488
19469.0912604
16403.6658944
19463.3703314
19460.7606365
16323.0871952
16364.1579553
19461.4281932
19461.146743
16370.0177675
19465.6568266
19474.7195103
16474.6241054
16503.3594708
19469.4492729
19470.9577348
16432.8074532
19462.2035523
19461.9587293
16379.9871258
16462.5052168
19458.310236
19466.9783845
16401.0788431
19456.3302552
19460.6514361
16311.6276338
16346.6490829
19459.1685402
19459.5598363
16313.8378864
19452.2284909
19451.8716702
16275.1266856
16221.6899498
19455.3451567
19448.2014877
16270.1900866
19447.6299963
19456.1141736
16352.2246764
16343.9793145
19453.8824781
19448.8259773
16312.9882006
19441.2240787
19434.9483327
16237.3364531
16312.5779047
19435.89629
19441.4639128
16276.7210329
19444.7663518
19449.5741564
16203.9542124
16213.0834698
19449.916062
19445.2493024
16202.9183014
19445.4552657
19451.1203207
16221.1520664
16244.7498913
19450.5650583
19447.7681422
16213.4044517
19431.9055883
19429.3522041
16230.2085617
16294.9698044
19431.1959406
19430.3305849
16225.6764896
19434.2008801
19437.1788409
16279.4715392
16327.9548834
19437.8339548
19432.8689636
16240.350538
19452.4600009
19451.7766145
16344.9123631
16295.8159089
19452.8332528
19449.9608418
16361.9454291
19455.823566
19458.8014405
16400.0991104
16492.5539712
19455.0006525
19459.8516795
16426.2697316
19449.7374878
19442.9340149
16336.99011
16489.3127894
19443.018902
19450.0034348
16408.2773289
19457.224689
19467.1082546
16533.042856
16544.6020265
19465.6650101
19458.0067254
16472.1168605
19469.0515763
19464.1626276
16592.7372705
16557.5197795
19469.4338059
19464.5660549
16606.0603732
19472.6197746
19478.1942481
16603.9959539
16612.7269461
19473.8705434
19475.6828606
16617.8194811
19478.0537978
19475.7110673
16592.5396444
16643.0320534
19473.972764
19479.535116
16646.8618951
19479.0101941
19481.5813703
16643.5556943
16646.8368034
19479.7754786
19480.9298854
16651.5005228
19482.2065804
19482.6907658
16625.2865104
16595.5460675
19487.7512419
19478.7101908
16587.7911724
19486.2799546
19497.9599762
16615.3181703
16593.1735259
19492.6000955
19490.840695
16584.5712042
19481.538185
19481.3184596
16617.3570975
16599.3287496
19480.3371407
19481.8144883
16586.7948155
19483.4907864
19484.6810741
16588.121235
16584.0553053
19486.8703858
19482.6759893
16578.3737508
19498.7811424
19501.5649383
16581.2425533
16595.1118558
19502.4261771
19495.3853667
16594.2004738
19498.3878508
19499.3658825
16570.7337929
16582.9406407
19501.4924451
19496.7388567
16594.8121826
19495.9221358
19487.8834746
16598.4738226
16614.0989721
19491.3517332
19491.3149736
16613.9556198
19496.8824844
19490.9327591
16588.714113
16613.0487612
19495.7396456
19491.7023655
16608.0327383
19486.2997587
19494.7379365
16530.7215995
16565.8419499
19488.2438968
19492.4543884
16546.7170904
19477.9118698
19471.9561728
16490.4187735
16468.3632223
19479.7402329
19470.1656677
16508.4744165
19488.0831938
19488.7164829
16567.8830397
16572.3144663
19492.7516445
19484.6110203
16540.9740626
19480.9948241
19473.3786576
16453.4574747
16527.4413985
19474.6816855
19478.2855859
16496.2456287
19440.6130463
19461.5754277
16472.3521344
16570.7007988
19440.0332362
19460.5376632
16504.614702
19393.018072
19436.097859
15625.685457
16254.3650706
19387.9900846
15692.4846826
19441.3031903
19449.8682267
19466.9317541
16561.6275677
16513.1895491
19466.9578475
19451.0699477
16501.3533487
19410.9385927
19460.5727859
16272.8965262
15705.8662077
19414.3017535
15707.3786635
19457.0549935
19498.9197616
19497.8111748
16850.1182085
16996.7920375
19493.6279732
16908.6653502
19502.3251425
19494.9629286
19485.2384488
16753.6042099
16742.8474656
19488.9896905
19491.1933718
16820.1344878
19505.715049
19511.4109753
17035.0269261
16994.1753851
19509.6952079
16958.4885417
19508.2118264
19502.5629396
19504.0978947
16797.5614354
16921.2082921
19499.155778
19507.1309439
16876.8761351
19483.0256723
19481.3489412
16554.6789049
16680.0086158
19477.2949688
19487.1255516
16619.3138013
19478.5178654
19467.0698974
16516.6442571
16537.0400064
19472.7962656
19472.9630175
16574.8253119
19491.2194747
19500.4518205
16729.756913
16726.1162121
19495.190602
19496.9328524
16672.9611322
19486.9214583
19489.0182745
16613.2622379
16703.8082105
19482.1124394
19493.0728891
16641.4388202
19459.2928205
19460.4018904
16396.9153876
16504.0858984
19452.2946948
19466.4166919
16479.7356443
19452.1420946
19436.7604165
16374.364671
16463.8087175
19444.1948042
19445.0744931
16464.7401526
19470.8739318
19484.3155622
16594.8069497
16668.1577953
19476.6571824
19479.0077653
16577.2624722
19464.7156537
19468.4594027
16578.421776
16673.8987755
19458.445586
19473.4977794
16579.108433
19440.6463412
19431.8221432
16364.9174092
16470.4835127
19432.1098826
19440.3250051
16479.9046874
19441.9997558
19438.5308498
16392.5606766
16530.4058052
19434.4173433
19445.0673629
16503.9453223
19454.1521625
19466.3533932
16583.5519387
16687.1061269
19455.0056373
19465.4869104
16585.5430228
19454.6536488
19466.5327039
16595.399536
16683.9154824
19456.1752945
19465.6068802
16590.2811498
19457.0944577