/*--------------------------------*- C++ -*----------------------------------*\
| =========                 |                                                 |
| \\      /  F ield         | OpenFOAM: The Open Source CFD Toolbox           |
|  \\    /   O peration     | Version:  v1906                                 |
|   \\  /    A nd           | Web:      www.OpenFOAM.com                      |
|    \\/     M anipulation  |                                                 |
\*---------------------------------------------------------------------------*/
FoamFile
{
    version     2.0;
    format      ascii;
    class       surfaceScalarField;
    location    "14";
    object      phi;
}
// * * * * * * * * * * * * * * * * * * * * * * * * * * * * * * * * * * * * * //

dimensions      [0 3 -1 0 0 0 0];
oriented        oriented;


internalField   nonuniform List<scalar> 
92311
(
0.203471143325
-0.000104859506817
-0.00106040793433
-0.203138383111
0.000832507363131
-0.00010152893073
0.203666334965
-0.000702773426622
0.000609669837697
0.203472209091
-0.000175125383845
-0.00112433399904
-0.203156716386
0.000879690777019
-0.000163713338938
0.203678444986
-0.000702014165076
0.00055874810909
0.203500325571
-0.000102688430985
-4.58948993301e-05
-0.00110439675315
-0.203122967695
0.000837861921084
-8.3331832386e-05
-5.36478104563e-05
-1.80270204538e-05
-3.11447580148e-05
-3.89169303193e-05
0.203619084396
-0.000701483567502
0.000527917669275
-2.03540107639e-05
0.0510061768886
-2.9575476147e-05
-3.3985691448e-05
-2.96799196737e-05
-3.08827558865e-05
-0.000383798355344
-0.0509291369004
0.000328268347467
-0.0510655198379
0.0511132212267
-8.80140130795e-06
3.43590864417e-06
-2.40816628798e-06
7.63169389644e-07
-0.000227030786655
0.000168364968971
5.99956795693e-05
-0.014707101706
5.25373483906e-05
5.84971533062e-05
4.79808253086e-05
0.00284116815368
0.0119535749387
-0.00105955277612
0.000752900195919
-0.023085739671
-0.00598242899741
-0.000415233151938
0.0216932987049
6.86378629441e-05
8.73801896638e-05
5.6852315096e-05
6.5572034505e-05
0.00751170673528
-0.0180702052623
0.00339059668138
0.00339779321994
0.00352273659548
-0.0225685594916
0.0360319302841
0.0499064300122
0.00312852814225
-1.75267723685e-05
-6.82479900034e-06
-9.85919866025e-06
-1.81956807234e-05
-0.000307559570482
0.000254853998261
3.82611536643e-05
0.0116936116453
-3.97604014489e-05
6.22399843253e-05
-0.0116943499714
0.0116868300302
-3.49167417062e-05
-3.45586659993e-06
-0.0116841514924
-3.03904466587e-05
6.60978869149e-05
0.000138743021009
-3.20044717231e-05
0.0511878686443
-1.76546708071e-05
-1.5295388217e-05
-4.94608636654e-06
-0.000174548942677
-3.41113496972e-05
0.0511505410957
-3.78145746512e-05
-2.4740813855e-05
-2.84213964657e-05
-0.0510407063646
0.000115202841329
-2.98583004978e-05
-1.36789544452e-05
0.0116981878548
-2.84220237285e-05
6.06579263744e-05
1.46065338153e-05
0.0127827682435
-1.54523984646e-05
-4.91828688946e-05
-0.0127647162645
0.0127776578
2.15541249197e-05
-5.75291254356e-05
-0.0127611493471
-0.000247532215438
0.203583673272
-0.00183664035303
0.00156243246461
-0.203061933057
0.203756375638
-6.08113571402e-05
-0.000296879731795
0.000268855562035
-6.19670832809e-05
0.203884593347
-0.000165726013517
0.000100438075097
-0.000302880669985
0.203634510001
-0.00196818882035
0.00161122810455
-0.203221735966
0.203860389275
-0.000143469104573
-0.000407436337169
0.000309245335028
-9.92808966748e-05
0.204040439841
-0.000251062141018
0.000109240036106
-0.000114089883212
-0.000141415726599
-0.000122610079127
-0.00198213099721
0.203652001058
0.00165297632979
-0.203148443854
-9.88625983637e-05
-0.000116832390702
-0.000208087121581
-8.14765688005e-05
-0.000135310830902
0.204064450834
-0.000304077439174
0.000257373353873
0.0509969612494
-2.29961972111e-05
-2.68689187951e-05
-3.55398593928e-05
-1.49935418401e-05
-0.000660249878867
-0.0509571395194
0.000606750299088
0.0512759940299
0.000116588606818
-4.39476424547e-05
-3.06625376553e-05
-5.28952457761e-05
-4.22547819828e-05
-0.000151703343909
-0.00870352979848
-0.000230767264324
-0.0225833807989
8.45110957696e-05
9.34629584382e-05
8.19957814789e-05
8.32032547792e-05
0.00808878146996
0.00363422100588
0.00481451732162
0.0035357946611
-0.0161416556689
-0.0043179991957
0.0490712265217
0.0239591318612
0.00455060745411
0.0034468002386
0.00186790950182
0.00380090254476
0.00240578264245
-0.0045854556635
0.0231044224265
-0.00900794662826
0.000531482031469
-3.24029774323e-05
-6.22613938299e-05
-4.66273900532e-05
-4.9883229728e-05
0.051077537775
-0.000562387122662
-1.58306235725e-05
-3.23787079938e-05
-1.93030171841e-05
-3.40734889286e-05
0.0509998366492
0.00044148336928
-0.0509308188749
-6.3021157759e-07
2.10993574411e-05
0.011733966548
-6.78647389668e-05
4.9953960666e-05
-0.0117363928949
-4.4968420372e-05
7.78418630596e-05
-0.0117093864953
-0.000137071841596
0.000130915011697
0.0116827277589
-4.80828155295e-06
0.0127175732345
-0.000127051708298
0.000110675272059
-0.0127122045897
6.61298128848e-05
-5.75879599572e-05
-5.6382337555e-05
-5.36621952853e-05
-5.54665846002e-05
0.0513251477159
-0.000100163477289
0.0512348072124
-3.42925462894e-05
-3.52808841937e-05
-3.45909339043e-05
-3.5483297257e-05
9.06618706133e-05
-3.78072331429e-05
-3.6496748642e-05
-3.86044553506e-05
-3.91335639794e-05
0.0512672893279
5.05268766881e-05
1.96431428797e-05
-2.24713180966e-05
-5.48800445536e-05
0.0127965896813
-7.93701749918e-05
5.51365667443e-05
-0.0116991982122
-2.42993604888e-05
0.011681944336
6.57458048758e-05
2.51100719056e-05
-5.33271693489e-05
0.0127913401847
-0.0127954819214
-3.38642049536e-05
0.0127954661143
-2.80471144361e-05
2.41681298354e-05
-0.0182090482426
5.07497222542e-05
2.66006072377e-05
3.5113100966e-05
0.0042778102974
3.0571447862e-05
-0.000954015503742
-0.00052899425049
7.48010472806e-05
7.56048380375e-05
7.83652893747e-05
7.5884777991e-05
-0.0106285547717
-0.00163279636409
0.00650319864899
-0.00773644369232
-0.0061980975365
0.00747679225587
0.00931794066111
0.006999757678
-0.00561889659625
-0.00613823497872
-0.00086726646889
3.3391327037e-05
3.01788354379e-05
3.81354307342e-05
0.00641627557737
-0.00219716704215
-0.00522005186439
0.00834351811092
0.00652795143314
8.57276098753e-05
0.0127400813699
-9.36007238289e-05
-0.0127234384173
-0.0127269251551
-2.70708116161e-05
-7.52544003357e-05
0.0127288049139
6.64894889008e-05
-2.92070657648e-05
3.00722048159e-05
0.0116840172632
6.12909476115e-05
3.66003295652e-05
0.0117127040514
-0.0117229278827
-7.61815825943e-06
-0.0127130885281
7.89585203699e-05
0.0117026591744
1.78890405606e-06
0.0127466570655
-8.25474754046e-05
0.0127337966339
-1.00927458824e-05
-5.89042534756e-05
4.65489659853e-05
4.56287280368e-05
-0.0127516893495
0.0127505117564
-5.4723148322e-05
-2.60930268042e-05
1.40837827598e-05
6.26110471859e-05
-2.48831428517e-06
-0.0117009007256
0.0117001305822
-5.97665728409e-07
0.012735072316
3.20498397506e-05
7.48901613345e-07
-6.79767965235e-05
-0.012741972865
-8.07145424184e-06
-2.19624009893e-05
0.0127494131499
1.38207809356e-05
3.15944114297e-05
0.0127535866296
-4.49026889844e-05
-3.10071455968e-05
-4.97316954451e-06
0.011704528571
6.30542823546e-05
-3.7202228611e-06
0.0117071993627
-1.55151536329e-06
1.86453734587e-05
0.0117085934908
-2.28324934174e-06
0.0127598362175
-3.24390358267e-05
-2.66421581781e-05
-0.0127676833526
0.0127806833214
-1.94211336413e-05
-3.80540478746e-05
-0.0117192944798
0.0117241499036
7.52197483355e-05
-0.0117165492336
-1.75095758813e-06
0.0117184910152
-2.61903422763e-05
-1.72763271154e-05
1.29302994221e-05
-3.1079058388e-05
4.79885947528e-06
6.83575675314e-05
3.86600355508e-07
-2.52153588061e-05
-5.95064857338e-05
-0.0127600955704
0.0127771353216
2.6270517168e-05
1.1482490453e-05
-0.0117333219058
0.0117373420389
-0.0117475059835
0.011751468593
2.36081273725e-05
2.04917022165e-05
-5.16417988868e-05
-0.012741735263
5.60359768958e-05
-1.27803964891e-05
-0.0117340152956
2.16278222073e-05
-0.0127378841664
2.60394990239e-05
-0.0117213960309
-0.000571470061215
0.00870809184916
3.55483950887e-05
5.84121920316e-05
4.38637973721e-05
3.13338878841e-05
-0.0126575182405
0.00823781473291
-0.00388605484469
-0.00625654351461
-0.00546394442129
0.00718952539564
0.00759038468988
-0.0101767748156
-0.0011072630204
1.25539692222e-05
-1.86497459909e-05
-7.64929187472e-06
0.00987762849396
-0.00796031529856
0.00937901657807
6.93837473071e-05
3.50107169363e-05
4.05729832862e-05
2.59990826792e-05
-0.0139336557044
0.0122485592559
-0.0105702992924
-0.00478285861609
0.0128345836497
0.00622260123863
-0.00390775965605
-0.00931841036687
-0.000648314800413
-0.0145638417363
6.9154085345e-05
6.19786164548e-05
5.33546021372e-05
6.11062031231e-05
-0.00436559150801
8.84488881621e-05
-0.00426920468422
0.000775419827516
-0.00348377053621
-0.000408448696727
-0.000746738253008
0.00939526539696
3.39396507204e-05
2.65113331946e-05
4.308038803e-05
4.5710787808e-05
-0.0169401297323
-0.00642066746485
0.0007994202387
-0.00204566923299
2.49848963112e-05
-0.000264002190279
7.70682642066e-05
5.39762643889e-05
6.18916427266e-05
-0.0211858980112
0.00798981895763
-0.000650496138748
0.000115045054343
-0.000164271417348
-0.012722133455
-1.82585658467e-05
0.0127266972409
0.000154962245169
0.0127290824261
0.000171815180646
-0.000173668299666
-0.0127331108308
4.25779827224e-05
-9.11584351446e-05
0.0117182030587
7.68615303048e-05
5.82437930037e-07
0.0117110867144
-0.0117155836383
-8.26435755517e-05
0.012736799906
-0.000165187327184
-0.0127269182792
0.000162020622823
0.0116981930287
-0.000104209826931
-0.000150430991209
0.0127347588403
-3.35891924527e-05
0.000143493527452
-0.0127442780994
0.00013674987093
-0.000136480307683
0.0127595519382
5.4577873741e-05
-0.000118500893682
0.000107670130339
6.11865319115e-05
-0.011695916341
-0.00013537528274
0.0116735556704
-0.000150033795094
0.000132036757307
0.0127507045999
-0.00012384771147
0.0116989040158
9.91900025998e-05
-6.42597512642e-05
-0.0117031013246
3.55124430154e-05
0.000106556238908
0.0116795288688
-6.43196804334e-05
-0.000117684583661
0.0127333464129
0.000105066810384
0.0127270763375
-8.61696274158e-06
-0.0127213422138
3.60067747946e-05
-0.0116979107295
0.0116769754824
0.0127433289022
-0.0116998339922
-3.95277812271e-05
0.012792460466
-2.53046097572e-05
-3.69164083015e-05
0.0117298878707
7.61426834899e-05
0.0117212102309
-1.03711415962e-06
-3.07713362797e-05
-5.03749618246e-05
0.012803183354
2.17342340872e-05
5.1811103356e-05
-3.66022484863e-05
0.0117207022253
7.5927378178e-05
0.0128047419971
-3.33443037217e-05
0.0117174183016
6.74711528061e-09
-3.83378111871e-05
0.012806460062
-4.74646159967e-05
2.50289980742e-05
-0.0128141230262
3.8559516841e-05
0.0128159344758
-4.15669473393e-05
6.05664925771e-05
-2.94435068739e-05
6.75079989787e-05
4.20818207664e-05
-0.0116971669828
7.85419077665e-06
0.0116768901015
-4.06666284059e-05
2.4610008982e-05
0.0128071893115
5.25131364718e-06
-0.0127914193987
-3.94864870659e-05
-2.57638742445e-05
2.59672068256e-05
-5.06224383918e-05
2.69443591728e-05
1.41154003351e-05
0.0117381336063
0.0117501446396
2.68223944448e-05
-1.5542875744e-05
0.011751122685
2.84544835897e-05
-4.4686339957e-05
0.012796588158
0.0117390663325
0.0117363989995
-1.90660781745e-05
3.38022230375e-05
2.86189651099e-05
-2.26256931653e-05
0.0117205866152
3.60527577034e-05
-2.61040404332e-05
0.0127923736634
2.13510245712e-05
0.012797486865
-4.24348005221e-05
3.95803012572e-05
-0.0117285440447
0.0117173157311
0.0127964860065
-0.000216011222272
-0.000156561168661
-0.000139700050022
-0.00016313820842
0.204650170766
-0.000187431416128
0.000178187429058
3.02419174503e-05
-4.86284422799e-05
-5.50637787333e-05
-5.09236791011e-05
-5.47389532211e-05
-4.98838501065e-05
0.0513381728767
5.99622814052e-05
-0.00855570851072
-0.000460681809602
4.58523460032e-05
4.61639844426e-05
3.11686882738e-05
0.00546360315929
-0.0178164939701
0.0037583803887
0.00446701233367
0.00433063461969
0.00324768303437
0.0258205790511
0.00360273578875
0.00163081009747
-3.97191733972e-05
-3.66158365999e-05
-3.82325277506e-05
-3.87698676673e-05
0.000134930409299
-0.000456732246366
0.0510913186651
-8.1349555378e-05
4.21273455336e-05
0.000106315442049
0.0116746790266
0.051282504109
-4.38698687013e-05
-4.28182133066e-05
-4.40866106397e-05
-4.36752715315e-05
3.29847392636e-05
0.0513027992787
-4.30701358927e-05
-4.23651400939e-05
-4.41853022429e-05
-4.42898679795e-05
2.78129621698e-06
1.11486879304e-05
5.05480553657e-05
0.0116533660427
-2.22295574777e-05
6.02701354859e-05
-1.33882326475e-05
3.47771322139e-05
-1.93430756941e-05
0.0116875649082
3.12360584922e-05
0.0115483478225
5.554731036e-06
4.02223400886e-05
2.04023889935e-05
-0.0116002665002
-1.4209790767e-05
0.0513320236283
-3.89455679884e-05
-3.66426512003e-05
-3.98770194231e-05
-3.45635995314e-05
8.84451403827e-05
4.69257262502e-05
-1.4538374581e-05
-3.00221129015e-05
-2.17189443679e-05
-2.09898624371e-05
-2.54402394792e-05
7.98661799288e-05
7.2231295938e-05
0.0513243102564
-4.61456540875e-05
-9.43027348263e-06
3.61513654875e-05
4.61266834876e-05
0.0115184154428
-4.29499012943e-05
-1.06682865972e-05
2.34566973284e-05
0.000132493008926
-0.0114695181315
0.0114574941444
-0.00013320174187
7.54212706909e-05
7.61231565501e-05
7.19203682986e-05
0.00907374704814
-0.0186213329132
-0.000573501671556
-0.0168875363209
-0.000802081773338
2.71229922322e-05
6.47578260946e-06
2.14219376156e-05
-0.00787470619001
-0.000789847078312
-0.0149751304649
1.32948188408e-05
-6.66632053334e-06
5.47568689957e-06
0.0058350777437
-0.00696441797587
-7.15928770978e-05
-0.000293879389677
0.003012689822
0.00251672146186
-0.000980598211773
0.000150015017391
0.00620275371159
-0.000323029321774
-0.0105873293959
2.20905911009e-05
5.74216288826e-06
2.05671081222e-05
0.000263786981639
-0.000335085983846
-0.00437438744298
1.28240518301e-05
1.39891267799e-05
1.94447466204e-05
-0.00300968919779
-0.000119802068151
-0.0070573976928
-0.000457318864985
-0.0127630342065
-3.52263866729e-05
9.80078685655e-05
-0.000112277069414
0.0127728195853
-0.00010689187288
0.0127522850167
4.3040939285e-05
0.0116712411052
0.000144442281669
0.000107616333782
3.31747668764e-05
0.0116712850327
-0.000121693629236
0.000147564056578
0.0116679854971
0.012762241103
-2.88785991111e-05
-0.0128068298814
-3.03713608765e-05
1.78050716495e-05
0.0127996698092
0.0128156858259
3.48348034941e-05
-3.9067735622e-05
3.49083229507e-05
-2.97164868666e-05
6.89155678186e-05
0.0116251782636
4.12199602955e-05
0.0116510130266
8.63940618505e-06
-3.41596639011e-05
0.0128049665854
2.16846695074e-05
1.29639825373e-06
0.0116208216922
-0.0127951097639
-4.24579226768e-05
2.11721749807e-05
0.0127903199933
-2.404126168e-05
0.0127884191097
2.0029342171e-05
4.51521597748e-05
0.0116886281043
-1.50245489859e-05
3.64183790745e-05
0.011648668345
2.40539997911e-05
0.0116539549984
0.012784666383
1.76876927228e-05
0.0127826544894
-4.06387838091e-05
1.79657156333e-05
-1.27651557058e-05
-1.70825778217e-05
-0.0127789757519
0.0127781012678
1.58547543769e-05
4.78116960813e-05
-0.0116073861595
0.0115630091479
3.02783807944e-05
-5.99282058642e-08
3.63373370321e-05
5.48795897234e-06
0.012780223818
-1.1042199211e-05
1.13528324808e-05
1.57625994738e-05
-0.0127822765431
-4.83183990547e-05
1.36306826445e-05
0.0127889877401
-1.09557423446e-05
-1.5741161946e-05
0.0127785305965
1.48757045795e-05
4.75704147875e-05
0.0115307502652
5.29238907056e-05
7.4768702e-05
3.87280027655e-05
0.0114855682656
-7.48225348327e-05
-1.00577905017e-05
0.0115003893166
7.74579314202e-05
0.0127864064779
1.00727713924e-05
0.0127965956067
-3.56791684182e-05
1.14742373712e-05
-1.33908778766e-05
-9.94807029042e-06
-0.0127937708523
0.0128018687823
3.69789542948e-06
2.32598151707e-05
-0.01148355247
0.000133310701117
0.011472321394
0.000104980734092
2.92161542977e-05
-0.000103928097974
-1.54043545386e-05
0.0128043894706
0.0001056230623
8.07343366721e-06
-0.000440603009519
-0.049172758174
0.0491448125792
0.000658028700782
-9.83387148404e-05
-7.66802146201e-05
-9.10708548494e-05
-8.38373675601e-05
0.000160905835726
-0.000719426351588
0.049752512709
-8.1533649022e-05
-7.40619522859e-05
-8.79688097832e-05
-7.1443483855e-05
0.000271601659748
-0.0496354371936
0.000645803833199
-0.00113688624279
-0.0499985305203
0.050303638243
0.000972758961902
-0.000114271969387
-0.000110133005571
-0.000130806241509
-0.000110438029554
0.000324667774259
-0.000804231272432
-9.25926481589e-05
-9.24151418994e-05
-8.9062109734e-05
-9.43249945031e-05
0.000256314108597
0.0505255170973
0.000673653959447
-0.0502828435615
1.51792571501e-05
-0.00801499649082
-0.00345049228675
0.00507515146129
0.00446513837249
0.00183545144949
3.07540072513e-05
1.44962255805e-05
2.72232707691e-05
0.000177983119295
-0.0044435798504
0.00203260210971
0.00489478236171
0.00362204622204
0.000237571373295
0.000162982355112
0.000193010066863
-0.00688425840226
1.0645271756e-05
-0.00229463187417
-0.0130584505185
-7.22483046669e-05
1.61190127434e-05
6.59892729599e-06
1.06133836654e-05
0.0146583274875
0.00072286362265
7.79019568e-05
-0.00387167359123
0.0117219624357
-0.0110130674017
0.00227157802755
0.00057389955875
9.20582344129e-05
6.81290100422e-05
7.89652883132e-05
7.20168351316e-05
-3.79852521084e-06
7.64851900372e-05
7.81016172068e-05
8.10773503878e-05
-0.0200035908702
-0.00202641409544
0.000117020494899
0.0216090228729
0.0110021433299
-0.00823821908717
8.53082218726e-06
-0.00501701973177
-0.00135523257647
-0.00780409620027
-0.0194166629553
0.0202671845657
-0.051451135398
-0.00806653343374
-0.00409719009288
-0.00900397659878
-0.00531336809849
0.0154968743286
0.0526213881487
0.0527562272936
-0.0121059722148
-0.00402476297691
-0.00707366426084
-0.00236716197557
-0.00396204650959
-0.0174501135737
-0.024278960187
-0.00637498670771
-0.00506952501636
-0.00276891717573
-0.0022216626184
0.0785273397904
0.0530632093172
0.00144765255082
0.000672681925551
0.00122083371144
-0.0210143622723
-0.00508628980598
0.00163680413382
-0.00149014897891
-0.00408088837735
-0.000935114973895
-0.00317068714007
0.0753511855512
-0.0104997890616
9.06511609448e-05
-2.52837798909e-05
-2.72287260378e-05
-2.7863061005e-05
-1.9068984703e-05
0.0489660923119
0.000126387100613
8.27656227357e-05
-0.0491663988833
0.0490047622576
0.000288590759897
-3.1139940996e-05
-4.40041087935e-05
-3.29920101587e-05
-4.37311309699e-05
0.00013559442819
-0.0491863616716
5.00500794449e-05
3.0344261209e-05
-0.011967164687
0.000112368114138
0.011882360566
-0.000108045055648
0.0119285453055
0.000110638835472
1.93150870734e-05
6.26909503637e-05
-0.000115423743287
-0.0120059724527
-4.47523667705e-05
-5.4894514936e-05
-3.93736961027e-05
-5.54786248196e-05
-0.000187561767409
0.0122452614331
0.0121867785438
0.0122047540207
0.0122296711992
7.99403276211e-05
0.000123153104324
1.79308563653e-05
7.1965615752e-05
-0.000130293090161
0.011845944141
0.000480238491763
-5.76810604213e-05
-6.25026263944e-05
-5.4781147388e-05
-6.87413316211e-05
0.000144570939916
-0.0492651988439
0.0494121794429
-4.85626596927e-05
-6.40581983209e-05
-6.24991028672e-05
-4.89534439966e-05
0.000143297379292
-0.0494144367677
0.000563409063776
0.0119237436083
-5.52746492521e-06
9.14070688305e-05
-0.0120015190659
0.000102444169561
0.0119211474841
5.80694531843e-06
7.66872074108e-05
-7.97468784323e-05
-0.0119957416673
7.17987753574e-05
0.00093259126587
-0.000106073373741
-0.00013090179028
-9.92667981572e-05
-0.00013911796163
0.0492042682141
-0.000179885705223
-0.000142300987562
-0.000187122970509
-0.000157929474394
2.64482814287e-05
3.74184545411e-05
4.38183185724e-05
4.31700325658e-05
0.0494321138657
-9.38737563108e-05
-7.52767761769e-05
-7.62421686113e-05
-9.29751658706e-05
0.000257395054913
0.0496810275219
0.000941946947804
-0.000101113458236
-0.000123252341059
-0.000130632225314
-9.82370257013e-05
0.000195457436529
0.0001019692012
0.011846338916
0.000113484624278
0.0116082510121
-9.90377682635e-05
0.000200988791213
-0.0116923821914
0.000172571813467
-0.000190580547357
7.16855319127e-05
-1.00715106301e-05
8.45102759888e-05
-8.17650085253e-05
0.0118567208568
0.0116530627772
8.81187424526e-05
-6.02508297182e-05
0.000154080616339
-0.000112257941661
-0.0117226721558
0.0500392255692
-0.000169226686212
-0.000129999413437
-0.000134726577288
-0.000154495980762
-0.001184689683
0.000278720772367
0.00135976202601
-0.000141435820425
-0.000128344903426
-0.000132340121324
-0.00014594263308
0.0507154697928
0.000137544156179
-0.00162490763409
0.000220946746368
0.0115905050129
0.000196212644682
-0.000221259772009
-0.000276540174835
0.000246485149598
-0.0116256158622
0.000281977783029
0.0116865346822
-0.000312813574209
9.43875880549e-05
-9.84247615416e-05
0.000156313490411
-0.000125413937332
0.0116262383668
0.0001308913764
-0.000138975416748
0.000174889323691
-0.000181649196987
-0.0115957441516
0.0116105551752
0.00082347683688
-9.116217963e-05
-0.000108383399683
-9.01994101753e-05
-9.97472379236e-05
0.000262119098785
0.0501768925792
-8.6358754839e-05
-8.89379437067e-05
-9.16282267388e-05
-8.85692024072e-05
0.000271550072138
-0.0499532516774
0.000683766261766
7.51622467753e-05
0.0118491735112
6.98409028413e-05
-0.0119118491003
0.0116569323103
-4.69083216086e-05
0.000122030828268
-0.0117199611906
7.60977392942e-05
0.011653872998
-4.73164957637e-05
9.4161422657e-05
-7.68518978149e-05
-0.0117094759379
8.56042936879e-05
0.00110471343479
-0.000114467055105
-0.000130665184541
-0.000124686008202
-0.000112990036979
0.0506916824283
0.000349990477596
0.0504284501471
-9.98633439975e-05
-9.65372964304e-05
-9.69599843604e-05
-9.41505489568e-05
0.00030473842744
-9.99563012536e-05
-9.13723350414e-05
-9.56394349498e-05
-9.87888764264e-05
0.0507026536472
0.000896442746973
0.000319941175211
0.000125038756198
0.0116265027714
7.76800942478e-05
-0.000129018784875
0.000155929148379
-0.0115912750454
9.71859814941e-05
0.0115980440516
8.02021741786e-05
-7.39804003553e-05
9.7675139874e-05
-7.42221805849e-05
0.0116242054411
7.60667607182e-05
-9.86089035482e-05
9.20923663647e-05
-7.37440743701e-05
-0.0115974927802
0.0116016894187
9.77991516119e-05
0.0116143362898
8.28716016086e-05
-0.0116427416612
8.14463107919e-05
-0.0115912561814
0.0115970278219
-8.9119298046e-05
7.79821108692e-05
0.00805356102451
-5.34462703838e-05
-4.73228249697e-05
-4.99364385479e-05
0.0104766401934
-0.00650061897615
-0.00730359048483
-0.00452438135304
0.00898184560213
0.00753163533241
-4.41678387388e-05
-2.15881681215e-05
-4.96443309529e-05
-0.00556220189639
-0.00276207082942
-0.00119578662257
-4.17057662736e-05
-5.3394213082e-06
-3.71874667046e-05
-0.00840063936323
0.0106657919612
-0.00935733265582
0.00554412547242
0.00269538517404
-0.00896312664687
0.0100837849857
0.00706060813796
-0.00760596203825
-0.000995980913913
-0.012825640772
-0.00895564425168
0.000388018323872
0.0115165016137
-0.00805981222996
0.000787893916939
-0.00243250213455
-0.0106497635149
-0.000515904418381
-0.00232900773948
-0.00218468745412
0.00221146823373
-0.0143777168701
-0.00289028953085
0.000285524898467
-0.0118653375881
-0.00215507361347
-0.00355779035951
0.00377978761313
-0.0148549258832
-0.00389650999826
0.0040588581091
-6.95652207505e-06
4.59932100894e-06
-1.08175717156e-05
0.000697622193094
-0.000668061449906
-0.00490995937263
5.81663175908e-06
-2.22596554748e-05
-1.03890546717e-05
0.00713889268511
0.000138505408599
0.00172463935364
0.00449879682766
0.00307526399755
6.28591430162e-05
9.34024820239e-05
6.50358457476e-05
-0.00726907186603
-0.0038104122795
0.00100074853362
1.48312128679e-05
1.88522477354e-05
2.81297580976e-05
0.00144648770189
-0.00393447381557
0.00293904017058
7.600287321e-05
4.59721279908e-05
5.47994161035e-05
-0.00421984262228
-0.00217736819269
0.00470252022539
-0.00234012055552
-0.00510687884717
-0.00435663798219
-0.00337378772063
0.0041899154132
-0.0059455132301
-0.00327194391636
0.00516745865452
0.0031383147498
0.000289442183874
0.000221385820942
0.000233993448574
-0.00137393270161
-0.0059176162642
-0.00508794351272
0.00169775896707
0.000120749031929
0.000111765935691
0.000147003101762
0.0016253515298
0.00484290005905
0.000180897862586
0.000142300527408
0.000180827991148
-0.00703136986441
-0.00767950417945
-0.00237652296576
0.00376859559124
-0.00959372128807
-0.00735057135582
-0.00204635218627
0.00338879931348
-0.00757626559817
0.00127783277198
0.000170003081633
3.7098832957e-05
3.81786459998e-05
3.19401148079e-05
-0.000106613123922
-0.017513736605
4.75281545498e-05
4.13558603232e-05
4.1189691896e-05
0.0192887618013
-0.000567997703905
-0.00169236806128
0.00225430018799
-0.00255551861297
-0.00275091558486
-0.00136034576627
-7.9360068759e-05
0.00151492040849
-0.00307412055892
0.00324368399552
0.0011310293065
0.000122379931898
0.000112311737169
0.000108751973624
-0.0110169522944
-0.0158539421473
0.000299553747203
7.28783657243e-05
8.09205591982e-05
8.06251074612e-05
0.000931147348908
0.000103786749001
9.8677568175e-05
0.000100799973942
-0.0148502355725
0.000907334593486
-0.00176234618573
-0.00254948135983
-0.000414209078664
-0.000907808960848
0.000568317974825
-0.00382961740245
0.00199740175295
-0.00409101203838
0.0123023887362
-1.92228138877e-05
8.56468617158e-06
7.63731531186e-06
-0.0123246368231
-3.01635079269e-06
-0.0123006208322
0.0122810808319
2.56510075571e-05
0.000103595831263
1.30390033237e-05
-9.80504251896e-05
-0.0120391649793
3.06400410845e-05
-0.0119823165635
0.000117216989282
0.0118994300627
1.85484570106e-05
0.012283520388
0.000107509969388
-0.0120554061823
2.27277807437e-05
-0.0123208165861
0.0123087817151
2.3641557946e-05
-2.57068612427e-05
-0.0123302178262
-3.87159496022e-05
-0.0123179732437
0.0123076580589
6.76918655549e-05
3.69543582421e-05
-0.0119898474831
0.0119101874155
5.28679929978e-05
-0.000105381070995
0.000103026940238
-0.0120780934096
0.0122924522136
5.20544216725e-05
-0.012337265049
-0.0120630723197
-0.0122715961185
6.47083228179e-05
-6.12562821566e-05
-2.94592223804e-05
0.0122528605501
-4.63109982065e-05
0.01228856143
8.25387206338e-05
4.30928123855e-05
0.0118284388956
-0.000133265825087
8.89118661982e-05
-0.000140249028769
0.000135324237362
0.0117570134659
-2.18380149513e-05
0.000109412984612
0.012277219111
-0.000145385879049
0.0117354374521
-8.39671003879e-05
0.0123426991557
-7.27246849057e-05
0.000110263226706
-0.0123539319766
-0.0123281558949
0.000100730958709
0.0123240890342
7.18295309794e-05
9.69102055718e-05
-0.0120742458222
9.75620196971e-05
-0.0120077369896
8.51651484997e-05
0.0119321277459
-0.0123428947445
0.000129415213973
0.0123429311622
8.2375784708e-05
-0.0120766969123
0.0123626521442
0.000127635887898
-5.8140439756e-05
-0.0123703757546
-0.000148169755942
-0.0123840248468
0.0123925554982
0.00015222911936
8.66264971407e-05
-0.0120009513494
0.0119254798783
4.76430839684e-05
-7.90220030742e-05
-0.0120590004512
7.24236547018e-05
0.0123680001766
-0.0123894040463
0.000131698778508
-0.012066054448
-0.000146255455623
-0.0123365606878
-0.000140054880781
0.01234282534
0.000181852253529
0.0123104729179
0.000121500197247
0.000129669317989
0.000124799557821
0.0117578341788
0.000110658715362
0.0118572395589
9.20440047073e-05
0.0123123864163
0.000154780368977
0.0117713924675
9.82688480797e-05
-0.000179324389065
0.0123524831619
-0.000152814946028
0.000216636701796
-0.0123126016987
0.000216907268463
0.0123413968893
-0.000175580065992
0.000142749786091
0.000143514916072
-0.0001578920072
0.000206391931481
-0.011710554832
0.000141233782841
0.0116290666817
-0.00013562792971
0.000252730164487
0.0123843712916
0.000116458003182
-0.0123670944868
0.000201169630685
-0.000125033610667
0.0123790598566
-0.00017380505515
0.0123964772068
0.000179111056899
9.42472376679e-05
0.0118564950522
0.000112742881992
-8.49044241852e-05
0.0117751828905
7.26749591929e-05
0.0124113750244
0.000206013582791
0.0117730228518
0.0123920335909
0.000235033702116
-0.000132350569161
-0.00026731982702
-0.0124282970513
0.0124608222346
0.000265635985842
0.000177798340679
-0.0117159877507
0.0116433258289
0.000116798969923
-9.64770185744e-05
7.81677408843e-05
0.0124248534169
0.000236736586189
-0.000298112742999
-0.0124286428689
-0.000263726358324
0.0124902749487
0.000328179200926
0.000172287047568
0.0123829123885
0.000257767055925
0.000132036971533
-0.00021006110824
0.000280567959491
0.000246482614439
0.011573824385
-0.000272951698273
0.00021447911567
0.0116096080949
0.000164117770416
0.0124540169452
0.000170530567663
-0.000258755057677
0.000290723150277
0.000137789174878
0.0115809540401
0.000204922563639
-0.000322518653098
-0.000241749459825
0.0125877773175
0.000350935401385
0.000116259664855
-0.0125668586466
0.000346631167622
0.0126822700504
-0.000328705640113
0.000113484891571
0.000268234383754
0.000255987116493
-0.00028607443862
-0.0116109720076
0.000221908732075
0.00023713992539
0.0116551986169
-0.000285151362452
0.00011860945998
0.000218822885822
0.000366093196375
0.012680334112
0.000110398016837
-0.0124658052841
0.000330487014764
-0.000228078531095
0.0125226293731
-0.000300394377513
0.0124955846481
0.000291993222166
0.000184962019648
0.0116184392337
0.000189790881277
-0.000156134560553
0.0115900343505
0.000114349321512
0.0125452001597
0.000316293684631
0.0115866545115
0.000350423442317
-0.000218673098389
0.0126007126904
-0.0126088006338
-0.000357108713969
0.000343119070286
0.0126693550523
-0.011602367378
0.000211790012947
0.0116279111964
0.000180786736271
-0.000165613451209
0.00012159755639
0.000335517072912
0.0126759501628
-0.000196342573021
-0.0124539532166
-8.12015185634e-05
0.01247457903
0.000175397265373
0.0124273490828
0.000171878794563
-0.0124189950629
9.62918670281e-05
7.00470676355e-05
0.0117716518933
6.37619568761e-05
0.0118438808924
-0.0119069340002
7.58081595748e-05
0.0124452663059
-0.0124434949219
0.000153792849022
0.011769819653
7.3537860959e-05
-0.00022376321827
0.0124923838581
-8.40530837958e-05
0.000198860246652
-0.0124637154425
0.000249430247612
0.0124935074592
9.56843504459e-05
7.12938822964e-05
0.000101337443084
-0.0117183097008
6.99504648031e-05
0.0116613263981
0.000221572351595
0.0125217606425
7.0731116023e-05
0.012519124141
0.000178417553412
-8.42565259275e-05
-0.0125007859034
-0.000198710465927
-0.0125405654774
0.0125679930249
0.000176546167715
9.72289888262e-05
-0.0117140195185
0.0116574059879
8.55964362467e-05
-7.94735265777e-05