/*--------------------------------*- C++ -*----------------------------------*\
| =========                 |                                                 |
| \\      /  F ield         | OpenFOAM: The Open Source CFD Toolbox           |
|  \\    /   O peration     | Version:  v1906                                 |
|   \\  /    A nd           | Web:      www.OpenFOAM.com                      |
|    \\/     M anipulation  |                                                 |
\*---------------------------------------------------------------------------*/
FoamFile
{
    version     2.0;
    format      ascii;
    class       volVectorField;
    location    "14";
    object      U;
}
// * * * * * * * * * * * * * * * * * * * * * * * * * * * * * * * * * * * * * //

dimensions      [0 1 -1 0 0 0 0];


internalField   nonuniform List<vector> 
28582
(
(0.813035283552 0.00374091528939 -0.000440036571848)
(0.814351017663 0.00271267822736 -0.000750930861151)
(0.81316970131 0.00405649955493 -0.000488958415345)
(0.814560115137 0.00253104660796 -6.90662902923e-05)
(0.813636355719 0.00387823665732 -0.000846379519669)
(0.814906262863 0.00249001322806 -0.00136790814151)
(0.815479604749 0.00566353415381 -0.00202219344829)
(0.81787002598 0.00289208671052 0.000177246490483)
(-0.209833401767 0.00608106719813 -0.00921787015345)
(-0.361550936421 -0.130799144737 -0.0131850114486)
(-0.0251546504119 0.0706242710904 -0.226874984898)
(0.816617444323 0.00430070986971 -0.000606576197587)
(0.748372095441 -0.0033254315285 -0.00208710124947)
(0.74746929088 -0.00300458192341 0.000346436639318)
(0.818762801219 0.00226198302152 -0.000211261011483)
(0.817832457391 0.00203044651965 -0.000111932014032)
(0.748238368753 -0.00284182139492 0.00105235593019)
(0.817550049281 0.000892749215613 -0.00343896945883)
(0.81727815081 0.000768170141994 -0.00368983391928)
(0.812171076993 0.0069079928489 -0.00077239492216)
(0.815619242979 0.00107199964239 -0.000474606921496)
(0.815808444985 0.000419787450194 -0.000726828723323)
(0.812618076091 0.00715933443585 -0.00131845303996)
(0.816166829793 0.00136451184223 8.57448566904e-05)
(0.816036064846 0.000526525584587 0.000369991341177)
(0.812901250234 0.00747325330042 -0.00131133381871)
(0.816293680842 0.00108037662519 -0.00146278364127)
(0.815416749345 0.0101346709439 -0.00239346130685)
(0.819547141752 0.00186438438545 -0.00206819846262)
(-0.366946984684 -0.140859902749 -0.0125018032654)
(0.0563834145755 0.230523961051 -0.265187779213)
(-0.106545323685 -0.194976711219 -0.153321724359)
(0.816530403602 0.00874609790553 -0.00315126652349)
(0.81525482033 0.00789181691241 -0.00261470984427)
(0.75139015654 -0.00378731713372 -0.000839381601209)
(0.74927150257 -0.00851847901461 -0.00348163985859)
(0.813952261906 0.00746702554865 -0.000580144641509)
(0.820659761726 0.0010849078668 -0.00373235496972)
(0.818987824945 0.00161766586369 -0.000741864936485)
(0.819697248848 0.000949993263193 -0.0018815296572)
(0.81834904782 0.00128888214087 -0.00369228853105)
(0.748034664419 -0.00309980984273 -0.00311250314851)
(0.818171144611 0.00109880441432 -0.00346177158575)
(0.81907566324 0.00186666456743 -0.00297922800479)
(-0.257871755749 -0.0252822169945 -0.0081356662084)
(-0.124339308513 -0.0530680890556 -0.0109696847754)
(-0.108594396207 0.141998661465 0.00440761949574)
(-0.0964141817176 0.10898078792 0.00755691909734)
(-0.341315255759 -0.0941954803002 -0.00931361919521)
(-0.11780894448 0.0919727667719 -0.003445913922)
(0.814655063723 0.00554756867905 -0.00208700177165)
(0.814410575773 0.00443188534502 -0.00204993272023)
(0.747462648452 -0.00293045034333 -0.00141808389168)
(0.749889664334 -0.00143205478837 -0.00206480670689)
(0.813814757126 0.00527116959958 -0.00200423011412)
(0.748606064585 -0.00066478804799 -0.00135071029954)
(0.815426812531 0.0049150556236 -0.00204225874135)
(0.814842941216 0.00333410357674 -0.0011567699054)
(0.816154905871 0.00312091241663 -0.000192938592303)
(0.747382005441 -0.00275057685207 -0.000797069593134)
(0.748699965965 -0.000839804125181 0.000708208560636)
(0.815179653925 0.00247077401179 -0.000514412461503)
(0.748430148156 -0.000665775298952 -0.000382653176244)
(0.815826248078 0.00395098364671 -0.00128505038358)
(0.815802672681 0.00105703362525 -0.00108369704007)
(0.816394700638 0.00239980463358 0.000395877085803)
(0.749418975993 -0.002935079311 0.000940001524636)
(0.749273559713 -0.000764379994823 0.000947089591291)
(0.815594269162 0.00145456943027 -0.000293623966001)
(0.749729817478 -0.000906785905839 0.000462488748165)
(0.816551652419 0.00163252626659 -1.5076680334e-05)
(0.817605190252 0.000921578169083 -0.00191466813999)
(0.750420608814 -0.00350634362082 -0.000660005849408)
(0.750058613285 -0.00112832446374 -0.00170292396858)
(0.816540481164 0.000806896295749 -0.00171794666639)
(0.749564278788 -0.0030434850098 0.000218733396336)
(0.749740210976 -0.000809544973968 -0.00070114483048)
(0.817131425795 0.00132326300045 -0.000500808155166)
(0.817258625847 0.00197437198618 -0.00401207119778)
(0.750779545092 0.000797182662713 -0.00292327834727)
(0.751672611071 0.000848097015836 -0.00302748653451)
(0.816080900256 0.000681899934965 -0.00272233464932)
(0.751452180161 0.000877003044263 -0.00316840795321)
(0.815865661678 0.00189408368924 -0.00310760508433)
(0.750544397003 0.00074133271002 -0.00295200811035)
(-0.146427572405 -0.0987317934749 -0.00840033816737)
(-0.106098957367 0.132618130618 0.00513627425566)
(-0.142474227581 -0.130191440812 0.00160873573393)
(-0.178308360896 -0.169206709056 -0.00340677241582)
(-0.161764063283 0.101733359501 -0.0203538799086)
(-0.15845182035 0.0916232270394 0.0137292448897)
(-0.212146936438 -0.135009404436 -0.00569526889051)
(-0.0774828009555 -0.010791711759 -0.0119266780873)
(-0.0706481089676 0.00474571202827 0.0111810585156)
(-0.259011209928 -0.160250811907 -0.000768686186209)
(-0.0718035315977 -0.0254744894076 -0.0209992387785)
(-0.352471705214 -0.147033690382 -0.00644671584244)
(-0.0506401318845 -0.00914812221013 0.00247293921944)
(0.814496198257 0.0101897665922 -0.00116832993214)
(0.814877374871 0.0109657864804 -0.00122445904295)
(0.751184265483 -0.00533764382669 -0.00211566134476)
(0.749979073384 -0.00503702811914 0.000346339122435)
(0.815000527755 0.0104680845735 -0.00221929945535)
(0.814481170231 0.010644176688 -0.000182410941358)
(0.749829847811 -0.00649233850333 -0.000434183863479)
(0.814950215203 0.00947387024706 -0.0018662194945)
(0.816301996645 0.00873187854684 -0.00474216186026)
(0.750008144108 -0.00717239515303 -0.00252833748588)
(0.748302229108 -0.00900142769299 -0.00232519295461)
(0.815601729974 0.00959487302636 -0.00302825145623)
(0.815691298522 0.00870024851933 -0.00380494535661)
(0.748957630645 -0.00802429746582 -0.00127720078214)
(0.749161002378 -0.00519378261588 0.000407972887461)
(0.748792702544 -0.0054667420881 -0.000984247712062)
(0.81456340237 0.00693366289692 -0.00232800531039)
(0.814555350314 0.00865726334564 -0.000843223134958)
(0.748468149882 -0.00775539355079 -0.000877506717171)
(0.81514592958 0.00809535131385 -0.002464356253)
(0.749009344905 -0.00721242654285 0.000252351041339)
(0.818356610319 0.00132899469973 -0.00236298465813)
(0.75074715413 -0.00370012085276 -0.00178443930503)
(0.750045513453 -0.00110763995376 -0.00262134358752)
(0.819234586303 0.0017389886825 -0.00410435565348)
(0.750399309483 -0.00379187037769 -0.00220556043197)
(0.819137090192 0.00183511053429 -0.00352199815029)
(0.749759602457 -0.0010642073398 -0.00246673596019)
(0.819599570899 0.00206480104112 -0.00395708842584)
(0.820100557422 0.0026245987611 -0.00387055505582)
(0.749810900282 -0.00338029081891 -0.00302135609948)
(0.748242998318 -0.00018397936504 -0.00232615515632)
(0.81962100532 0.00241193701795 -0.00394480072041)
(0.819648120396 0.00201196768133 -0.00373755444004)
(0.749382846718 -0.000547628167002 -0.00255083311587)
(0.818977955652 0.0019028634611 -0.00330065704116)
(0.818155535457 0.00203538973328 -0.00345113444618)
(0.751245331388 0.000924531632979 -0.00305802517852)
(0.752103694787 0.00106167672304 -0.0029960261133)
(0.752060282588 0.00113134167787 -0.0026138456294)
(0.818973553434 0.00123210666163 -0.00343092596384)
(0.751261599171 0.00101612998729 -0.00273754739197)
(0.751816659052 0.00150081689701 -0.00242556567696)
(0.750885382716 0.00177604742271 -0.00202481787239)
(0.81881575624 0.00170932767612 -0.00270822804228)
(0.819119881527 0.00145419637897 -0.00318344537811)
(0.750500200473 0.00128647242603 -0.00261002543849)
(0.819022145456 0.00140964513857 -0.00311789274655)
(0.751150934335 0.00115834493543 -0.00278616678995)
(0.817609212118 0.000659862397471 -0.00140141533298)
(0.82109743299 0.000438764540468 -0.00388422758155)
(-0.315846847554 -0.122651465441 -0.00281090010554)
(0.0658591698602 -0.0451092831363 -0.202095700052)
(0.816825315318 0.00673440037678 -0.00257808497728)
(0.747168091891 -0.00518347728448 -0.0015649249974)
(0.820388570165 0.000497379989092 -0.00251257071339)
(0.820484171296 1.7987517586e-05 -0.00224502663228)
(0.746686056427 -0.00283880754342 -0.00315529840532)
(0.74905119766 0.00158103935461 -0.00263361548935)
(0.74128271638 -0.000872936790816 -0.00256659199366)
(0.821046765519 -0.00058350203677 -0.00158618015419)
(0.82114349994 -0.00100380872194 -0.00135022904524)
(0.737945758332 -0.00258854271243 -0.00192485194022)
(0.733979185971 -0.00843000288972 -0.000484964124927)
(-0.248315587888 -0.0927613074621 -0.0143050579938)
(-0.273360628284 -0.154904283742 0.00386815785558)
(-0.265193385035 -0.115280043208 0.00569108027209)
(0.0292985790096 0.0209262926956 -0.00680438321204)
(0.0130304390317 -0.0249521857339 -0.0234455278999)
(0.0619618210924 -0.0140458181668 -0.0233637222901)
(-0.208478848968 -0.0469185699876 0.0012859090418)
(-0.135431459963 0.0200720131239 -0.00178042274113)
(0.816952943207 0.00680446107623 -0.0028026162166)
(0.815341396691 0.00621576838614 -0.00270617941916)
(0.746862136662 -0.00820828025724 -0.00139762442712)
(0.746575337823 -0.00518971671142 -0.00105145139481)
(0.816053549548 0.00743508744911 -0.0028909706061)
(0.746480848591 -0.00842247471969 -0.00101395291315)
(0.816313928179 0.00562406870317 -0.00266594778327)
(0.819166908383 0.00138732486796 -0.00280806806901)
(0.820116301403 0.00250389241998 -0.00365784546208)
(0.744743895307 -0.0034530615001 -0.00232385750094)
(0.746692763561 -4.96759403498e-05 -0.00254116990232)
(0.819901347235 0.00215566907154 -0.00301815692105)
(0.819484838801 0.00174007057484 -0.00354694775036)
(0.744559347133 -0.000488268722003 -0.0020096822851)
(0.818563082515 0.00108625182136 -0.00310300392596)
(0.818510860739 0.00160876474925 -0.00291551920319)
(0.749275004416 0.00117653008993 -0.00326243007506)
(0.746552447755 0.00136130482683 -0.00286018456881)
(0.818789245641 0.00126502093491 -0.00327537477363)
(0.746733077362 0.000726536411541 -0.00331466059625)
(0.818158134965 0.00140288654583 -0.00288312330989)
(0.818072966214 0.000834754230886 -0.0031696909351)
(0.817737413898 0.00116051450393 -0.00312951248955)
(0.741729171763 -0.00155951563061 -0.00344224247215)
(0.743415090511 0.000357260549973 -0.00252649849689)
(0.817866109831 0.000763398911029 -0.00331514395144)
(0.74417831913 -0.000291000700983 -0.00294352372806)
(0.817835079185 0.00117506361799 -0.00303231984523)
(0.818418468373 0.000696983407366 -0.00331759352852)
(0.817810869923 0.00109656604414 -0.0029999111135)
(0.738957374335 -0.00310065279824 -0.00305171427879)
(0.736512899691 -0.0045803327391 -0.00145328634612)
(0.817963881401 0.000719321138332 -0.0033212435958)
(0.736990648552 -0.00478809387731 -0.00274362694654)
(0.818249525245 0.000858683579333 -0.00300127944103)
(0.819002803545 0.000736346099286 -0.00259873116084)
(0.819457242718 0.000419118091374 -0.00191878601137)
(0.734709808117 -0.00844682719294 -0.000942500213129)
(0.734490774471 -0.00649673397345 -0.000922707515681)
(0.819497947599 0.000766463410842 -0.00173374004374)
(0.735423589516 -0.00670347183717 -0.00173268910498)
(0.818860387964 0.000591379609746 -0.00226051839699)
(0.789057641187 0.00830738679514 -0.00344416581819)
(0.795874536837 0.0111798749781 -0.00416730448311)
(0.802657174262 0.0176269601753 -0.00544487304551)
(0.80636842554 0.0119329936249 -0.00436857393519)
(0.0700269918273 0.109415671043 0.00664542829717)
(0.0601326426305 0.10077506714 -0.0174870826889)
(-0.223093207113 0.0225665462662 0.00484547477643)
(-0.177410689096 0.0521477826391 -0.00798930254263)
(-0.336419499459 -0.0157872655662 -0.0109561776281)
(-0.0165335285439 0.0482130439 0.0574993665435)
(0.0729127395315 -0.311222180804 0.0737109227202)
(0.0744338003312 -0.100414945904 -0.0429087092961)
(0.352472594727 -0.119512674198 -0.13081450268)
(0.0800825830631 -0.0126787586639 -0.156933606397)
(0.401165061208 -0.0608274513485 -0.0839251421875)
(0.785658598053 4.61065019297e-05 -0.00196867667507)
(0.786759806418 0.00273428598087 -0.00220684346464)
(0.76309894726 0.00688939439839 -0.00142165900508)
(0.765795576328 0.0073309114622 -0.00349784767834)
(0.784631986772 0.00525893437879 -0.00138886259569)
(0.760921833125 0.00830059806253 -0.00318839602472)
(0.78815827032 0.00616033769485 -0.00250570386609)
(0.791260709655 0.00839157087347 -0.0022113058021)
(0.765656115389 0.00671737501102 -0.00481346005058)
(0.765366907092 0.00475056031592 -0.004403534737)
(0.789444645595 0.0132184323299 -0.0032603174975)
(0.792627928896 0.0114638650544 -0.00331198414461)
(0.795038642863 0.0153752277713 -0.00370452183164)
(0.760834780332 0.00741111917939 -0.00490036001832)
(0.746920953206 0.011564634489 -0.0087384856922)
(0.760947305137 0.0047908768447 -0.00452988342281)
(0.748410981438 0.00626523715969 -0.00707286785059)
(0.79961561406 0.0197486294688 -0.00541183627961)
(0.805181426411 0.0242741586878 -0.0035994717371)
(0.743678211326 0.0132019623479 -0.0100468816152)
(0.744800448949 0.0191425446419 -0.014057154766)
(0.745376587253 0.00694591657254 -0.00743167843739)
(0.742200542065 0.00981867510072 -0.00847094623977)
(0.79870152087 0.0146498234862 -0.0045569703101)
(0.801247020028 0.0124312067542 -0.00463509890294)
(0.760358877872 0.00443189146746 -0.00405208847626)
(0.748151452084 0.00514016751419 -0.00521048521354)
(0.747655393552 0.00529291599408 -0.00358417053259)
(0.807551796066 0.0204289983552 -0.00567040639878)
(0.804915103702 0.0146295078275 -0.00508057164524)
(0.808756712538 0.0161223700419 -0.00508446525672)
(0.745296849304 0.00530592763619 -0.00553578736516)
(0.741789032077 0.00704369296044 -0.00734415478336)
(0.744711872289 0.00496879920168 -0.00350432438134)
(0.742132774719 0.00480041428298 -0.00370354518096)
(0.74402849162 0.00524485421737 -0.00336825038483)
(0.741710831724 0.00489881817671 -0.00295429730013)
(0.146214958455 0.115050225751 0.0097015085483)
(0.120020632964 0.131008483657 0.00922787795806)
(0.163506662935 0.13643958031 0.00864857554475)
(-0.168252529246 0.13748671118 -0.0533991401416)
(-0.121181342346 0.181088557069 0.0484656073116)
(-0.1949167186 0.044964006873 -0.0201609344274)
(-0.113258619117 0.058578441938 0.10306441378)
(-0.12541004616 0.00573193159685 0.116042850279)
(-0.240367216924 -0.013691083084 0.106517666618)
(-0.136216775729 -0.0232403315878 0.150390208938)
(-0.262066535545 0.0717071065109 0.137903986866)
(0.0358815291186 0.0996440273859 0.00896268410935)
(-0.09882115245 0.0497933227767 0.00917615410042)
(0.0848055429163 0.101700372889 -0.00207996175468)
(-0.0632734016473 0.052619242744 0.00603533824888)
(-0.0587414932804 0.0583772416562 -0.000427755315906)
(-0.087232808443 -0.0312058728735 0.0773441405741)
(-0.0596668457088 -0.0261766503682 0.135202890354)
(-0.0756131186688 -0.0421286019436 0.0459339017585)
(-0.0710794281885 -0.0473686433126 0.072826132378)
(0.00957969325872 0.0914877218344 -0.0278313654434)
(-0.065050493941 0.0682168328949 -0.00915017850994)
(-0.095078244899 0.0806678055535 -0.0154829919749)
(-0.0847580376442 -0.0325358880558 0.165417563708)
(-0.145001293981 0.0647684357341 0.151264996235)
(-0.109519320602 -0.0437730455006 0.0906623448751)
(-0.10513189429 0.065579628446 0.088272231124)
(-0.19725378896 0.0345477134711 -0.00107823449547)
(-0.292368316538 0.00153865899381 -0.00380885307482)
(-0.038661763611 -0.057809621023 0.0120045557905)
(-0.0128707439223 -0.0541047166843 0.0293315299059)
(-0.00933366607169 -0.0426342779062 0.0195209904467)
(-0.172168802902 0.0674119797329 -0.0138662421535)
(-0.266174126407 0.0150478623218 -0.0101926960805)
(-0.239302781154 0.0312731059033 -0.013960164238)
(-0.0330842709362 -0.0360653138193 0.0464977543765)
(-0.0146055757096 0.0234972555535 0.0800327147713)
(0.00473012442756 -0.0522420190208 0.0376047642842)
(0.0207371162433 -0.039358825774 0.0690526612587)
(0.788086151426 2.09992350192e-05 -0.00124508968255)
(0.787000038918 -0.000938633531443 -0.00173982247506)
(0.768470554109 0.00634127281967 -0.000570076224801)
(0.764123873547 0.00730375420629 -0.00157940017614)
(0.787177583565 0.000537602150504 -0.00166878188199)
(0.769443362582 0.00678548052351 -0.000798301836438)
(0.787953407891 -0.00111663979825 -0.000716458915243)
(0.788441692122 0.000883106165857 -0.00175676615476)
(0.788284408364 0.0033432597922 -0.0033711763604)
(0.764729981868 0.00733353284144 -0.00180487294758)
(0.770973958036 0.00672062525008 -0.00253528180063)
(0.787587169913 0.00174898527241 -0.00211784117565)
(0.788953274669 0.00227770989067 -0.0033240122972)
(0.76999136752 0.00666765625318 -0.000972739173699)
(0.786154677807 0.00290362707946 -0.0039128492407)
(0.787478683865 0.00389925297924 -0.00461567326242)
(0.759736885475 0.00833306537022 -0.00166422078524)
(0.755424086333 0.00887547485027 -0.00422614690673)
(0.786735137866 0.00216710735769 -0.00287048961254)
(0.787149933143 0.00559730901085 -0.00507322164612)
(0.754167992019 0.00905890744789 -0.00229807869159)
(0.790354090959 0.00606692550025 -0.00458101413984)
(0.788973877188 0.0053475072188 -0.00533192156122)
(0.770674186559 0.00629930990138 -0.00372084344384)
(0.765948559237 0.00608623864758 -0.00537555323908)
(0.789552333463 0.00442822976409 -0.00441089423433)
(0.790095267106 0.00722884809987 -0.00578412577905)
(0.770926150266 0.00585199871676 -0.0039134950183)
(0.791654224343 0.00759920017671 -0.00368733074547)
(0.792863452101 0.00961678894056 -0.00511597182425)
(0.765685147424 0.00530690237219 -0.00499614320858)
(0.769785444445 0.00478883455341 -0.00320390720046)
(0.791406906145 0.00887799592125 -0.00522714209461)
(0.792965491085 0.00830933519781 -0.0034712001723)
(0.770249163584 0.00520438610383 -0.00355665638448)
(0.790514075831 0.010390084089 -0.00845707521636)
(0.788663642204 0.00651817341855 -0.00627481599597)
(0.755716477454 0.00828598312408 -0.00605435617327)
(0.761554040584 0.00669522797452 -0.00562383063417)
(0.788790199531 0.00793319907402 -0.00795767942392)
(0.79004410025 0.0087296589958 -0.00685771257614)
(0.756086996741 0.0072275112972 -0.00713239606683)
(0.791317221914 0.0124800168954 -0.00927114979993)
(0.789997292072 0.0123307086706 -0.0124902528971)
(0.750812331175 0.00945799357749 -0.00616255327863)
(0.747430255357 0.0101169428547 -0.00978748214913)
(0.789223746691 0.0100650058083 -0.00888115353029)
(0.792336230665 0.0149086958017 -0.0128446501473)
(0.752043679827 0.00842359202483 -0.00739573775058)
(0.792409692977 0.0122459189473 -0.00796041125567)
(0.793562337235 0.0113005697638 -0.00559152993739)
(0.761134223704 0.00553995394077 -0.00489648353111)
(0.756419453196 0.00491090502644 -0.00558099502522)
(0.791851090517 0.0105169799715 -0.00598744569346)
(0.794290572419 0.0130592741538 -0.00751113862451)
(0.756308585537 0.00579370807612 -0.00622675493707)
(0.793589196436 0.014495878423 -0.00840610021931)
(0.796641996772 0.0171918178303 -0.0104179411166)
(0.747974301105 0.00799020998819 -0.0081307233731)
(0.752142796765 0.00543641134997 -0.0056180128617)
(0.79448094005 0.0165467124863 -0.0116455251898)
(0.795564116195 0.0151336547757 -0.00769456780221)
(0.752113339894 0.00679088592021 -0.00633502716381)
(0.798228759822 0.0201060770055 -0.0162277467193)
(0.792743080382 0.0151186321195 -0.0127986024692)
(0.74184751389 0.0166384037174 -0.0131950246796)
(0.744798181075 0.0114964634948 -0.0103654926351)
(0.796071905419 0.0178649794995 -0.0167900316634)
(0.794936163978 0.0174266901617 -0.0127112041937)
(0.742285429216 0.014693670137 -0.0130010599066)
(0.802411391397 0.0216309409251 -0.0142350432914)
(0.806821191803 0.0218144797196 -0.0141860716068)
(0.743328867614 0.0173302590589 -0.014141697474)
(0.743631078382 0.0168831748492 -0.01211189027)
(0.800836178187 0.0197071308015 -0.0150520759097)
(0.742649249109 0.0154085240317 -0.0128741115563)
(0.807822354878 0.0229776907033 -0.0136297011999)
(0.799993518715 0.0211416755328 -0.0149709243434)
(0.798976158623 0.0191116353454 -0.0101335235835)
(0.745362839295 0.00913550088943 -0.00880945639525)
(0.743170416896 0.00853223799013 -0.00862281759323)
(0.797110761445 0.018858749765 -0.0114548448303)
(0.801404374937 0.020853652226 -0.0129140082999)
(0.742816427266 0.0113742965826 -0.01052356451)
(0.803661035551 0.0226002688517 -0.013517069994)
(0.808672677696 0.0226560101705 -0.0119025009645)
(0.742840265162 0.0134349066652 -0.0109741998234)
(0.741976128711 0.00918858314175 -0.00870662464031)
(0.804677440087 0.0221940711775 -0.012027737628)
(0.742338719286 0.0121698681357 -0.011044581808)
(0.808442819083 0.0233186832328 -0.0138039501117)
(0.798040686075 0.0119721151634 -0.00579347474112)
(0.795358814194 0.0112510447416 -0.00509196867652)
(0.755973890943 0.00443222294717 -0.00460446308848)
(0.759909768423 0.00454114962211 -0.00348009226301)
(0.796301187297 0.0128869947861 -0.00665190282815)
(0.796894611942 0.0104398108313 -0.0046987912758)
(0.755774860785 0.00447511762356 -0.00390216053097)
(0.79936096614 0.0135690798091 -0.00609433627003)
(0.798835875179 0.0166579029074 -0.00854817291798)
(0.751794657476 0.00459572472465 -0.00438373541251)
(0.748232937115 0.00450596402033 -0.00416838646081)
(0.797647804828 0.0148268076953 -0.00650044248412)
(0.80064824545 0.0151635507636 -0.00718505154183)
(0.751531909089 0.00442795084847 -0.00360870479664)
(0.800971930426 0.0121936967152 -0.00588241831052)
(0.803658117718 0.0121237496855 -0.006588045668)
(0.747944259566 0.0045804543795 -0.00386620191095)
(0.750857641072 0.00547636773305 -0.0032566552)
(0.802355203047 0.0135426681522 -0.00682475966387)
(0.802255163827 0.0107936402063 -0.00615325380672)
(0.751182905562 0.00470465984539 -0.00352641256502)
(0.804379713139 0.0180481608204 -0.00871800860945)
(0.800747962334 0.0183918823679 -0.00838960966783)
(0.742999035187 0.00637103419093 -0.00649874672223)
(0.745253737388 0.00462709949641 -0.00426978538939)
(0.803017453311 0.0197741816935 -0.0106006581352)
(0.802232103336 0.0167037706128 -0.00765631561931)
(0.743287455348 0.0051184171736 -0.00498060619003)
(0.806600021361 0.0191942895187 -0.00884012397239)
(0.80899763514 0.0213235093794 -0.0107810889552)
(0.74180811202 0.00656550557759 -0.00701144420381)
(0.742203984985 0.00539981825859 -0.00549603333642)
(0.80564483268 0.0209321468677 -0.0101978359757)
(0.742228475645 0.00528795632253 -0.00536842925557)
(0.80953050018 0.019703353899 -0.00899870021018)
(0.805802236813 0.0162772301684 -0.0075821159111)
(0.805135609023 0.0133190795521 -0.00708107389749)
(0.744950781084 0.00450958080107 -0.00380035296231)
(0.742975016999 0.00481949220047 -0.00388816316124)
(0.803826542744 0.0149564469762 -0.00701344750961)
(0.806928632816 0.0146492707026 -0.00711664142646)
(0.743051497421 0.00458376502728 -0.00432792961412)
(0.807764817072 0.0174034393481 -0.00772452297112)
(0.810750518517 0.0164465449767 -0.00675507138422)
(0.742146126103 0.00462419522258 -0.00443999929902)
(0.74218249376 0.00476710007796 -0.00386814694966)
(0.808768311978 0.0156372904968 -0.00721483189089)
(0.742198191442 0.00459674918629 -0.00447522051489)
(0.810094018205 0.0180524049287 -0.00756764816721)
(0.809003142629 0.011825129113 -0.00742847420688)
(0.806262101375 0.0118204980042 -0.00718665933859)
(0.74239163485 0.00497844326224 -0.00341674616433)
(0.743738883475 0.00534971199611 -0.00383128470585)
(0.807933367032 0.0131095341998 -0.00705873828231)
(0.807362472347 0.0104713789026 -0.00756717277233)
(0.742120738435 0.00508662297886 -0.00369350092966)
(0.811472547762 0.0150630571001 -0.00622109992659)
(0.741707796953 0.00492564227611 -0.00326421863028)
(0.809725104959 0.0141530283631 -0.00667033188414)
(0.814924111003 0.0047222014076 -0.000622693730767)
(0.816353230422 0.00313866408488 -0.000791647769799)
(0.817454739542 0.00150085630335 -0.000631860259715)
(0.81536022807 -0.000576469288949 -0.000598721339964)
(0.807546340645 -0.00125949818321 -0.000123406626629)
(0.834539192105 -0.0493846309477 -1.38621673782e-05)
(0.815350449526 0.00505863166955 -0.000746120307765)
(0.816677178543 0.00335472589899 -0.000137116688731)
(0.817651583228 0.00213977969804 -0.000164326685545)
(0.816291062974 -0.000441183032932 0.00237098018176)
(0.808318141784 -0.00156975820148 0.0058817372361)
(0.839786548976 -0.0559363957811 0.00715522925134)
(0.812783445886 0.00570954938312 -0.000169601165636)
(0.810170720626 0.00627410285438 0.00013098103488)
(0.787408722311 0.00998394984387 0.00242255100162)
(0.783039264036 0.0104810004278 0.00194535962296)
(0.779658078948 0.0115368895416 0.00152445332115)
(0.771147616261 0.0134530154272 -0.00195216910164)
(0.780621090211 0.0153873166633 -0.0404935152127)
(0.711297881458 -0.0102874764731 0.0277702230867)
(0.823414486364 0.00515002827891 -0.000509065766935)
(0.821463116372 0.0035216495668 -0.000358912766394)
(0.818165595714 -0.000181946478981 -0.00108050673852)
(0.816469750576 -0.00227115258809 -0.00314649020942)
(0.814581110734 -0.00087463182299 -0.00409638684991)
(0.815231045919 0.00252974553582 -0.00391119263012)
(0.806024564008 0.0095465928207 -0.00347889150768)
(0.83625386551 -0.0893268462033 0.00318613355585)
(0.817594566637 0.00668558620414 -0.000954957555865)
(0.820352924608 0.00457433784439 -0.000988751802363)
(0.820697951937 0.00279615972888 -0.00135450515644)
(0.820068749762 0.00227020586901 -0.00221462382498)
(0.818738682286 0.00238675828097 -0.00214298818695)
(0.818734605374 0.00226860144934 -0.00144536847759)
(0.810447964836 0.00178318053312 -0.000363209694914)
(0.845352330719 -0.0594513845524 0.0030418354198)
(0.814437315916 0.00724874941982 -0.000820002315616)
(0.817375264877 0.00446521543885 -0.000777263150413)
(0.818450739123 0.0022614070204 -0.00103486475312)
(0.818757949547 0.000743894762207 -0.00120305167282)
(0.817846426104 0.000301092705995 -0.00163164609109)
(0.81760115815 -0.000527526970214 -0.00104062371114)
(0.808814982971 -0.00180845121839 0.00011791143808)
(0.838728008452 -0.0679948818978 0.00109004132197)
(0.817127864909 0.0010563074667 -0.00100519958761)
(0.816736763092 6.34211615673e-05 -0.000721052501207)
(0.808258794344 -0.000998385727441 -1.8014328506e-05)
(0.836847478677 -0.0518889408229 0.000201276726631)
(0.636054520662 0.0406727022359 0.0103564778356)
(0.633577094231 0.0400184065714 0.0120355816065)
(0.643366862684 0.0241190322239 0.0201994357779)
(0.639220748286 0.0224447904504 0.0176491981515)
(0.634803835172 0.0205916383695 0.0184190304958)
(0.583314721128 0.0180735512491 0.0248390328062)
(0.685022881716 0.0100525561211 0.0397188228193)
(0.0898693255932 0.0751831695964 0.0726243961228)
(0.770523168172 0.0131797201946 0.00663222476599)
(0.766125830416 0.00931514840269 0.00674117568587)
(0.773606718472 0.00214647207999 0.0115178444983)
(0.770257216751 0.00147007302462 0.0143644155656)
(0.769434079165 0.00428491807889 0.0146651220908)
(0.766714788975 0.00824135527608 0.0191531804423)
(0.761998055113 0.0571575709335 0.0324917780771)
(0.776252849044 -0.209947813692 0.0514167857908)
(0.819792429565 0.00747978556698 -0.00177494097592)
(0.820309635621 0.00516955596336 -0.000947091106186)
(0.819761711826 0.0052152348876 -0.000549796400082)
(0.81959799624 0.00625765117051 -0.000208368891341)
(0.818872165315 0.00693533759381 0.00144552438523)
(0.821064883306 0.0069364205658 0.0049139191332)
(0.814036818647 0.00747452945121 0.014873702024)
(0.89027364902 -0.0950327118886 0.0200968962644)
(0.815313389619 0.00787137873573 -0.0016910638403)
(0.81782116144 0.00449786780493 -0.00101463225286)
(0.818442818503 0.00265567138006 -0.000316556792287)
(0.818537921193 0.00206032878337 9.59054120946e-05)
(0.81810150867 0.00164822924744 0.00119439269737)
(0.819702050733 0.000613841920329 0.00444724595038)
(0.811335467906 -0.00131322278148 0.0106987124534)
(0.854439701906 -0.0867994558479 0.0134701736264)
(0.817336072167 0.00167008305533 0.000370597098732)
(0.81798985762 0.000638976318147 0.00286801167311)
(0.809376821309 -0.00118815804249 0.0074201502912)
(0.845365587914 -0.0645305311662 0.00912798329053)
(0.63310016751 -0.0162369157987 0.0178593196175)
(0.626924444796 -0.0175844315213 0.0178069420263)
(0.631428285525 -0.0212336142674 0.0240163873953)
(0.629711805938 -0.0175659535982 0.0244201539037)
(0.633668144945 -0.0139460610721 0.0255045544635)
(0.635888154056 -0.00316080606098 0.0284877217334)
(0.692208358681 0.0663907845662 0.083895124902)
(0.679226135809 -0.409626258667 0.0206505067926)
(0.73367785689 0.00549868867214 0.0208209184754)
(0.729549228417 0.000295482578631 0.0216715630475)
(0.780225808973 5.59059255153e-05 0.00872367132664)
(0.779025364272 0.000286332736434 0.0108010835922)
(0.781258242629 0.00254975147834 0.012950757209)
(0.7894509627 0.000951525743433 0.0119430537414)
(0.800532258423 0.00815375704253 0.0197086132751)
(0.916051740302 -0.233176359387 0.0193650542925)
(0.821119983049 0.00657474054516 -0.0036727675893)
(0.822267686557 0.00493127589156 -0.00276963092012)
(0.82133552933 0.00216704143283 -0.00180330753505)
(0.821542062413 0.00109987972104 -0.00097905960365)
(0.822966363011 0.00149405391571 -0.000415970069927)
(0.830839911956 -0.000408839732834 0.00054354044234)
(0.824141658 -0.00532816265368 0.000795907606478)
(0.926750482182 -0.191414234328 -0.000350462509917)
(0.811436862509 0.0117771533886 -0.00312728523056)
(0.815981160589 0.00764714202603 -0.00263775255039)
(0.819089494501 0.00419385780381 -0.00245133518187)
(0.819716606021 0.00193422440544 -0.0014547198175)
(0.820031250756 0.000481662990328 -0.00156340217741)