/*--------------------------------*- C++ -*----------------------------------*\
| =========                 |                                                 |
| \\      /  F ield         | OpenFOAM: The Open Source CFD Toolbox           |
|  \\    /   O peration     | Version:  v1906                                 |
|   \\  /    A nd           | Web:      www.OpenFOAM.com                      |
|    \\/     M anipulation  |                                                 |
\*---------------------------------------------------------------------------*/
FoamFile
{
    version     2.0;
    format      ascii;
    class       surfaceScalarField;
    location    "3.8";
    object      phi;
}
// * * * * * * * * * * * * * * * * * * * * * * * * * * * * * * * * * * * * * //

dimensions      [0 3 -1 0 0 0 0];
oriented        oriented;


internalField   nonuniform List<scalar> 
92311
(
0.201353846374
-0.00014058491094
0.000521439560165
-0.201413858934
-0.000320842024843
-0.000209622628922
0.201194294962
0.00109829120131
-0.000728978267624
0.20130954767
-0.000324308957959
0.000554122026371
-0.201356684044
-0.000323084850141
-0.000483844210013
0.20116137802
0.00114165774364
-0.000718983517718
0.201146071551
-0.000126175177357
-0.000140630051195
0.000600758184937
-0.201221251728
-0.000369713283047
-0.0001070825144
-0.000106209363866
-0.000201757932892
-0.000220968695079
-0.000153074575176
0.20096071361
0.00120324430191
-0.00078728303083
-0.000138558597609
0.0502933150598
-1.80280737226e-05
-3.40128465893e-05
-2.89340106623e-05
-2.62666587898e-05
8.60134225617e-05
-0.0502987400621
-9.95202566041e-05
-0.0502879695244
0.0502489142007
-4.89262165865e-05
-4.26378879157e-05
-4.81353628555e-05
-4.54820445818e-05
0.000219680790155
-0.000197201216802
3.74380559395e-05
0.0312393457229
4.10820372383e-05
3.81522686424e-05
4.74356721299e-05
-0.00398021275896
-0.0327020082559
-0.00128597112172
0.00656477289454
0.0291999998536
0.00722368631774
0.000901678730417
-0.0304960916003
3.85898909057e-05
3.47720233829e-05
3.40367228968e-05
2.97309907244e-05
-0.00696645163121
-0.0104355631847
-0.00255345331906
-0.00243312624746
1.87236897918e-05
0.00192802258705
0.0119910788863
-0.00110623917511
-0.000131257905696
-3.85048021788e-05
-3.50521709123e-05
-4.27490870799e-05
-3.1917879803e-05
0.000166860085898
-0.000153947382031
5.57008740704e-06
0.0124502937044
1.84925202869e-05
4.84838109431e-06
-0.0124417873448
0.0124514142406
-3.88953606606e-05
2.88913824929e-05
-0.0124515034423
1.98024304277e-05
-9.71602873126e-06
-0.000229498702819
-5.7938436701e-05
0.0502236200239
-5.88616907352e-05
-5.5023053499e-05
-5.51508546387e-05
0.000260773210275
-4.56932968548e-05
0.0502066154821
-5.01024679377e-05
-4.20391451222e-05
-4.39590519871e-05
-0.0502112536821
-0.000196150469451
-2.83437515752e-05
3.12640566325e-05
0.0124429964706
1.83590218697e-05
-1.27886018497e-05
-6.17667725746e-05
0.0125436932382
5.33947062637e-05
-4.8690751896e-05
-0.0125445626151
0.0125422904868
-5.94742889191e-05
-4.93478740721e-05
-0.0125409856738
-4.99038325417e-05
0.201939562854
-0.00027054442029
0.000240855344027
-0.201859969904
0.201122646916
-0.000270845557165
0.00125336947307
-0.000910191673662
-0.00030968887282
0.201098649839
0.00125838840099
-0.000924078359002
-5.45851265432e-05
0.201837108967
-0.000179808318376
0.00023936716037
-0.201891925008
0.201094271709
-0.000622245477703
0.00129564534577
-0.000876660378769
-0.000727277776895
0.201142130935
0.0012880433602
-0.000917849292446
-3.98197266221e-05
-4.72251010618e-05
2.93329257801e-05
-0.000290101808373
0.201743408332
0.000254378563301
-0.201743637892
3.9085686093e-05
-0.000280976745107
-0.000327075539307
-0.000206244012811
-0.000238419849866
0.200974890802
0.00133775803756
-0.000921592971119
0.0504600132032
-6.23447050298e-08
-1.51025301778e-05
-1.72289238932e-05
8.9354906783e-06
-0.000255135741274
-0.0504181271236
0.000196870766126
0.0501889169249
-0.00024503165762
-6.99001714169e-05
-7.14602015365e-05
-7.44273838844e-05
-7.60615125657e-05
0.000290618933183
0.00626474254411
0.00298787881273
0.0264469085661
4.69009365014e-05
4.17201611917e-05
5.77192302864e-05
5.21378320233e-05
-0.00669838629815
0.00291287843331
0.000704155451368
0.0019297622549
-0.00366179538231
-0.0038673708165
-0.00589651208799
0.0010564471849
0.00321004450084
-0.00146782768805
-0.00281593848327
-0.00260172945126
-0.00388242759776
0.00662246652224
-0.00209549836769
0.0117324068185
8.26744947938e-05
-1.18650437953e-05
-2.21888244044e-05
-2.39395405091e-05
-1.25892600362e-05
0.050502546089
-0.000101887399092
2.03863771068e-05
1.93270676602e-05
1.39210916842e-05
1.12422773588e-05
0.0503668779505
9.67530072855e-06
-0.0503294346772
-1.11020733306e-05
1.06160082818e-05
0.0124620489406
-2.74243990819e-05
2.68787570333e-05
-0.0124609733897
-2.11515886746e-05
2.648845348e-05
-0.0124627000683
-4.05340755882e-05
4.24282413406e-05
0.0124554661589
2.80873653543e-05
0.0125679683491
-1.51239543284e-05
3.259001684e-06
-0.0125638233309
-0.000236709249372
-8.97249465783e-05
-0.00010423010875
-9.10914950136e-05
-9.92207062462e-05
0.0501935692769
0.000289269944655
0.0501973514072
-5.54440692492e-05
-5.96029887755e-05
-5.80892645828e-05
-5.74633438547e-05
-0.00021137295288
-6.68659772334e-05
-6.79618077954e-05
-6.76289261193e-05
-7.13959339705e-05
0.0502086761531
-0.000212722794964
-6.10055215685e-05
5.35190361295e-05
-5.77341158129e-05
0.0125389449622
-9.17722678723e-05
0.000109599858074
-0.0123448035892
1.61262357297e-05
0.0123256118102
-1.4748157329e-05
-5.91439181111e-05
-5.47199907048e-05
0.0125396060448
-0.0125458931946
-6.16918387418e-05
0.0125399579509
5.12324792864e-05
-5.03823927244e-05
0.0309378629152
4.19385453657e-05
3.73023700226e-05
3.96381481607e-05
-0.00553215075392
0.00731530088918
-0.00163933132372
0.00052773787761
3.40268612535e-05
4.53659163826e-05
3.30162119621e-05
2.90792306191e-05
0.0289187644199
0.00789225773975
-0.0302570001922
-0.00164134063719
0.00412175135383
-0.00588003757472
0.00136903299609
-0.00603535880232
0.00317542967685
-0.00031286583633
-0.000835127256745
3.33041902404e-05
3.98915842481e-05
3.37435200464e-05
-0.00647257015747
0.00761479951149
0.000345037358038
-0.00861628656272
0.00142340250532
-2.83153710876e-05
0.012565804819
1.61308607458e-05
-0.0125661308872
-0.0125605008034
-2.91517259966e-05
3.22513194824e-05
0.0125621808659
-3.87988666535e-05
1.68868787616e-05
2.15978056015e-05
0.0124507236966
2.13309358965e-06
2.44454669298e-05
0.0124442933381
-0.0124423948503
3.02988936365e-05
-0.0125587943728
-3.45513735304e-05
0.0124507321799
2.87380387932e-05
0.0125674973144
2.58553754669e-05
0.0125612220459
-3.1063443717e-05
3.59486551099e-05
-4.24129597104e-05
-4.07543853912e-05
-0.0125670449464
0.0125638775689
3.77443974716e-05
1.71179219895e-05
2.83609980543e-05
-4.36129799237e-06
3.50400833721e-05
-0.0124505636008
0.0124475946308
2.4943867854e-05
0.0125580102553
-4.52143823304e-05
2.60034771992e-05
3.28827187355e-05
-0.0125530902813
-3.87059549659e-05
4.85920698755e-05
0.0125492423038
-5.49683960345e-05
-4.54442591863e-05
0.0125564454215
4.15791218895e-05
1.96660940857e-05
3.64705069922e-05
0.0124346331728
-1.43988413168e-05
3.89505174087e-05
0.01244308099
2.39185715102e-05
-4.97623142184e-05
0.0124341624341
2.38088191596e-05
0.0125517410278
4.42342867303e-05
-5.17226162938e-05
-0.012547102489
0.0125440489776
4.92305678851e-05
1.81603082365e-05
-0.0124177282883
0.0124007754478
-1.43458584792e-05
-0.0124183446691
2.05678908468e-05
0.0124019514651
-4.25489360496e-05
5.16430340959e-05
-5.95426957266e-05
1.92787726521e-05
4.55930621107e-05
-1.40182186106e-05
2.21877219994e-05
4.66526292975e-05
-6.05154881835e-05
-0.0125396919403
0.0125438469295
-5.33331665688e-05
2.14524803402e-05
-0.0124140018859
0.0123977456303
-0.01241169989
0.012394820499
2.31209025269e-05
-5.64512976119e-05
-4.18504785864e-05
-0.0125443729711
4.95806266169e-05
-2.58708419291e-05
-0.0124297224903
2.74416279038e-05
-0.0125392412515
-5.12247200636e-05
-0.0124305759615
-0.00322061458905
0.001718278832
-4.59587260154e-06
-1.32930041241e-06
-5.16830336128e-06
-7.50118148074e-06
0.0329515960521
-0.0337651007643
0.00233438882081
-0.00296174899371
0.00966484557463
0.0024622587599
-0.00947730805382
0.0301369936872
-0.00159184760514
2.48749137354e-05
-1.14249478012e-05
-7.19779147007e-07
0.00535246429663
-0.00337990737821
-0.0305413507298
-0.00173614750531
2.41085915078e-05
-6.59597960539e-06
-9.48976496018e-06
0.0300150170383
0.00354699167963
0.00527615597797
-0.00338517081242
-0.00696474275491
0.00418672981476
-0.00170961003981
0.00421325111046
0.00223072297742
0.0255304047017
3.49979447119e-05
5.3773157131e-05
5.09772675792e-05
4.36853687746e-05
0.00723843800058
-0.00297028485371
0.00422102649075
0.00362857182905
0.00128086997854
-0.000906676892093
0.00408966382771
-0.00533141851059
4.57131696524e-05
4.53025382265e-05
5.61995839211e-05
5.08127990517e-05
0.0199455259038
0.00662641199667
-0.00302603731167
0.00503782262115
0.00370194680062
0.00465081779792
7.0643240564e-05
7.14062164143e-05
6.47319656122e-05
0.0215065618456
-0.00534167317076
-3.73517060367e-06
-0.000980428740813
-6.04968507771e-05
-0.0125866990106
9.29723431707e-06
0.0125952058186
4.26325711957e-05
0.0126043714848
7.63450834943e-05
-8.36566043042e-05
-0.0126015176232
1.91726039154e-05
-3.31507148577e-05
0.0124673169902
3.34468689512e-05
-2.46459547796e-05
0.0124582411338
-0.0124505675464
-2.19069547965e-05
0.0126110192969
-6.52822916204e-05
-0.0125842893715
5.81510003574e-05
0.0124644229368
-3.06890855442e-05
-4.52624685069e-05
0.0125996516169
7.97873596987e-07
2.81089190217e-05
-0.0126160854238
2.78622628563e-05
-3.13131106294e-05
0.0126238617535
2.66093402655e-05
-3.67192251922e-05
3.88561565116e-05
1.31321512735e-06
-0.0124573609766
-4.12478065839e-05
0.0124501966282
-4.76636293512e-05
1.14047480877e-05
0.0126047456926
-3.83094887919e-05
0.012449391353
1.94144920297e-05
3.90070289737e-06
-0.0124492223828
-2.19020003905e-05
2.52401527998e-05
0.0124474697308
-2.78560017507e-06
-1.22725121968e-06
0.0125734514755
-6.96779285593e-06
0.0125835659219
2.2103529346e-05
-0.0125788383196
-1.63121913617e-05
-0.0124563664129
0.0124513958946
0.012588468666
-0.0124606550185
-6.13332157679e-05
0.0125361841921
5.12115297591e-05
1.7786685071e-05
0.0123812908103
-1.27045777795e-05
0.0123830398831
2.06674504393e-05
5.24333485726e-05
-6.72570110313e-05
0.0125381500806
-5.88251657635e-05
7.31738169398e-05
1.53042739239e-05
0.0123633619848
-1.27986113849e-05
0.0125334012436
5.22617854086e-05
0.0123662596036
1.69825782979e-05
4.94661726214e-05
0.0125327104318
-7.81608431946e-05
-5.55872248464e-05
-0.0125273226853
-4.75871292225e-05
0.0125287390263
5.14535301632e-05
8.74287064046e-05
1.51482537478e-05
-1.34717908891e-05
9.41236318172e-05
-0.0123521368602
1.49034706198e-05
0.0123305495928
5.1891462892e-05
-5.37659993111e-05
0.0125337915047
1.58314286203e-05
-0.0125452330872
-6.41264968963e-05
5.63548951623e-05
-5.25196029123e-05
-6.51969829237e-05
-5.35275079475e-05
1.87827682639e-05
0.0123799705253
0.0123819543477
2.02653736177e-05
-1.67996300409e-05
0.0123671812665
1.86373760596e-05
-6.0499822311e-05
0.0125400671605
0.0123633777472
0.0123493417287
-1.5423193394e-05
1.71171864481e-05
6.50331087919e-05
-1.53039809602e-05
0.012328480612
1.66687961169e-05
4.85972982604e-05
0.0125372643677
-4.88316070558e-05
0.0125351568515
-6.71401043309e-05
7.58577247758e-05
-0.0123473359584
0.0123271406913
0.0125343422161
-0.000374546539184
-0.000278052571805
-0.000333128375833
0.00130049785073
0.201318868063
-0.000434981293283
-0.00095107790276
-0.000233683666753
-0.000122819034267
-0.000114994755583
-0.000132475235298
-0.000109809522876
0.000282434873012
0.0502503751055
0.000107671277275
0.00428869576447
0.00499065392586
0.000131050792435
9.15646978803e-05
0.000100623393062
-0.00389246765586
0.0156884761191
-0.00116061101571
-0.000366864410418
-0.000152551365078
0.00370024329226
0.0364986609131
-0.00109388909357
0.0141039394328
8.58169531915e-06
1.17700374465e-05
3.50085755328e-06
3.99516365514e-06
3.56191231174e-05
4.79393620826e-05
0.0503414375913
-5.79297294989e-06
-1.5018967323e-05
2.73562032145e-05
0.012445769393
0.0502641154935
-9.42422010209e-05
-8.0564101317e-05
-8.24334432342e-05
-8.77466408285e-05
-0.000222344107374
0.0503439952439
-0.000100269678119
-0.000110379503752
-0.000114228769614
-9.42203489336e-05
0.000231170107649
-0.000225203277758
0.000119608628794
0.0123166382929
1.52384705527e-05
-1.81907848358e-05
-5.7926607367e-05
7.57301149893e-05
-1.01958636579e-05
0.0123116214628
8.94621700265e-06
0.0122761473388
-0.000128367421052
0.000133609231015
3.30077058715e-06
-0.0122849031652
6.82058555922e-07
0.0504424373766
-0.000106905778015
-9.98247386222e-05
-0.000104256442698
-0.000105527298503
0.000308629464148
0.000223114054966
-0.000213734814607
-8.93033524909e-05
-6.7387407546e-05
-7.53487415832e-05
-8.54105149052e-05
0.000269794007969
0.000221817769406
0.0504755994368
-0.000207518023768
-0.00014815621096
0.000137758826297
9.38359031285e-06
0.0122774101834
2.41543001319e-07
-7.46750884303e-05
6.62581135386e-05
-6.10023081182e-06
-0.0122606310786
0.0122602578028
1.51178065211e-05
-1.84214810239e-06
1.5512374714e-05
2.20708356891e-06
-0.000934953752116
0.0326906687336
-0.00280659293152
0.0137158417118
0.00453773148524
7.1123909889e-05
7.83536387493e-05
8.73547559721e-05
0.00568576560482
0.00428817481314
0.0075075351251
0.000120369208972
0.000110025926863
0.000110646473029
-0.00354818377162
0.00499932637968
0.000492380373251
0.00171323288428
0.00161337867419
0.00642225439255
0.00328811002346
0.00151373957926
0.00622113912095
0.00285150782909
0.00187666143569
0.000121350758333
0.000138326109831
0.000122408172281
-0.00400994567557
0.0038090224342
0.00530104572777
9.13362332688e-05
0.000104717486246
0.000122509163873
-0.00502068295087
0.00287140513449
-0.00199317706804
0.005625660908
-0.0125862696553
1.11710372109e-05
-2.49576831824e-05
2.40073395729e-05
0.0125846118841
1.24901194252e-05
0.0125737520746
-1.16040725417e-05
0.0124444932285
4.39503587851e-05
2.47294111856e-05
-6.24618532631e-06
0.0124449233875
6.33949764735e-06
4.49266391728e-05
0.0124375603174
0.012572178788
4.3623682267e-05
-0.012535960753
-0.000124971692167
-5.28677760277e-05
0.0125473660735
0.0125318490798
-4.36425233053e-05
4.52114178507e-05
0.000146079381132
1.83045758859e-05
-1.9205532342e-05
0.0123024724478
0.000104376539538
0.012321675605
1.13185941547e-05
4.40999865176e-05
0.0125449336601
-5.12914463255e-05
9.73417698019e-06
0.0123060313461
-0.0125345405118
-0.000108648887599
-5.01271004742e-05
0.0125461468082
4.71671250301e-05
0.0125335981578
-4.840204337e-05
8.68829086703e-05
0.0123123683734
-8.55068916394e-06
9.88961401691e-05
0.0122890934456
1.01952521387e-05
0.0122921399793
0.0125440459005
-4.95418845704e-05
0.0125617336357
-0.000116606796793
-5.35847671754e-05
5.42593510252e-05
5.45970867955e-05
-0.0125598831493
0.0125795531768
-5.09285901067e-05
0.000133303314626
-0.0122878675516
0.0122772483051
1.04541302175e-06
1.12791511081e-06
0.000112112607438
1.00506461353e-06
0.0125799455713
5.5349999893e-05
-6.83691664982e-07
-5.1540755638e-05
-0.0126047603957
-0.000132726172155
-4.8727933849e-05
0.0126257082357
5.35867498517e-05
5.5092326348e-05
0.0126108253949
-4.8380944199e-05
0.000129621696677
0.0122728866581
5.41832863249e-06
7.56102571887e-06
0.00013424367819
0.0122718157317
2.02756109232e-06
5.56484956004e-05
0.0122614721622
8.48054686908e-06
0.0126328289593
-4.19725803658e-05
0.0126483635138
-0.000121604943144
-4.1646235546e-05
5.1311581546e-05
3.75506314876e-05
-0.0126550842732
0.0126503812611
-3.40626152458e-05
8.55239844815e-05
-0.0122564793309
1.24678264182e-06
0.012254920492
-4.29665676479e-06
0.000110913700593
9.04089321628e-06
4.78763069847e-05
0.0126481910156
1.55062359231e-06
-3.83962966559e-05
-0.000488196336868
-0.0491050863686
0.0490635725497
0.000630041284251
-3.15511501497e-05
-5.42965823092e-06
-2.75247983909e-05
-1.08617113292e-05
-2.52783177237e-05
-0.00068745973441
0.0495543488361
-1.97886944282e-05
-5.35275883789e-06
-2.36347980222e-05
-3.72998954947e-06
5.23146227698e-05
-0.0495093300972
0.000642583395015
-0.00101810991185
-0.0497168621993
0.0499966861273
0.000875134041072
-6.12850628505e-05
-5.48140776191e-05
-5.77692866472e-05
-6.06575550883e-05
9.76787818899e-05
-0.000753066563997
-4.15898338073e-05
-4.10933219877e-05
-3.97837745733e-05
-4.48220327372e-05
0.000110499638654
0.0500864138167
0.000659983941891
-0.0499365391797
1.6668751894e-05
-0.00767901890903
-0.0452220746417
0.038046498408
0.00499386565851
0.00966305601588
5.68741554968e-05
4.8888365376e-05
6.31442524385e-05
2.77307884492e-05
-0.0292710153119
0.0227112097522
0.00599784891272
0.0074695385909
3.97469831245e-05
0.00013021472438
6.24241857858e-05
-0.0071811916353
-1.87704589651e-05
-0.000691740455342
0.0403872070948
0.00679354608494
1.40544738454e-05
-2.34159074939e-05
-8.77050484682e-07
-0.0444808681975
-0.0019794104716
3.9071607834e-05
-0.00140481699444
-0.0318393271173
0.0250838418668
-0.00382387616136
0.0116973838174
7.13381225709e-05
0.000110911682681
6.54818160024e-05
3.65830725724e-05
0.00860166928279
3.3110320327e-05
3.91695883614e-05
2.86047797325e-05
0.0256279555466
-0.0117880857634
0.00839609143906
-0.0309750257598
0.0453936464624
-0.0188038492775
-0.00183195446846
-0.00782687065826
-0.00676915935276
-0.00918538981911
0.00748058247157
-0.0143503764112
-0.0156596656008
-0.0131149377713
-0.00796889126361
-0.0137901374219
-0.00899280110058
0.0167566556628
0.00152331599041
0.0409402602165
0.00159600522353
-0.00677175555967
-0.00849460275117
-0.0062843699084
-0.00970897114501
-0.0072067445036
0.00533304739775
-0.0120594211313
-0.00839964799154
-0.0135599195637
-0.00994775415613
0.0195251879954
0.0476193262262
-0.00232881382687
-0.00803527336156
-0.0069131892854
-0.00770120460491
0.0119985228736
-0.0011342142917
-0.0146613307028
-0.0117346516333
-0.0137974211618
-0.0115190617659
0.0304422842871
0.018782052576
0.000117974601996
4.80904062478e-05
5.13652694083e-05
4.59181885736e-05
5.81527528346e-05
0.0488275796255
-7.75695875497e-05
3.05554946528e-05
-0.0491022177609
0.0488873795959
0.000304042063663
4.14441260105e-05
2.13314394406e-05
3.49615460503e-05
3.18265575554e-05
-6.51595194575e-05
-0.049137965083
6.43525594985e-05
-6.74005406136e-05
-0.0123537413773
2.76207180751e-05
0.0123374394109
-8.33819987984e-06
0.0123524045945
6.9578380075e-05
7.03127331247e-06
-8.60788145753e-06
-5.71603105461e-05
-0.0123644563484
8.14549599111e-06
1.80264068043e-05
3.20191105593e-05
-3.52706470516e-06
-0.000226924557545
0.0122115489854
0.0121898897947
0.0121145685296
0.0121769014389
-0.000121592277593
8.16444328681e-05
-1.85477768322e-06
4.147899845e-06
-7.05027218097e-05
0.0123384978723
0.000452021829961
1.32535312707e-05
2.03460591792e-06
1.85285238352e-05
-2.99922009631e-06
-5.27553023711e-05
-0.0492311172709
0.0493094657745
9.33584972227e-06
-1.13847746882e-06
-2.466309524e-06
6.55401671335e-06
-4.31094228947e-05
-0.0493701172529
0.000543387684403
0.0123606455907
-7.4099285744e-06
9.46795644463e-06
-0.0123716420373
7.86586323627e-05
0.0123865006501
6.19979090655e-06
9.68003614669e-06
-8.42256686931e-05
-0.0123978582495
7.97077416808e-05
0.000908931012301
-1.82758809068e-05
-3.01971847609e-05
-1.99397728428e-05
-3.05482709511e-05
0.0491322224979
-0.000193961513861
-0.000162813569451
-0.000195882729742
-0.000159992580844
-4.84048437317e-05
-3.83399638006e-05
-4.37061181267e-05
-3.56512204956e-05
0.0493034427302
-3.34492437082e-05
-8.32558849291e-06
-1.08177897185e-05
-2.67457709727e-05
2.75816398021e-05
0.0495230717508
0.000851021432486
-3.58007735015e-05
-5.44601260967e-05
-5.23740469515e-05
-3.47383999633e-05
1.54599651279e-05
2.15376816786e-05
0.0123488670317
8.74740890548e-05
0.0123569575467
-8.73409490041e-05
7.49564001202e-05
-0.0123519531132
0.000126546469378
-0.000118916973352
9.27175239167e-05
-8.5306438381e-06
1.96720090542e-05
-9.93093928934e-05
0.0123813465917
0.0123994387612
0.000117030445833
-8.47600616559e-05
9.3621845391e-05
-0.000130932888321
-0.0123942079727
0.0498258102635
-4.16035767169e-05
-3.77659338364e-05
-4.35617153143e-05
-3.52647255582e-05
-0.00111937646737
-4.33908049872e-05
0.0011474482669
-5.96908759091e-06
-5.50920557601e-06
-2.35585900542e-05
6.48950813836e-06
0.0503792331507
-0.000204164622336
-0.00146826134399
2.90036097488e-05
0.0123633453503
0.000128656065209
-0.000135622527069
1.23699558906e-05
-4.0298045714e-05
-0.0124071878605
0.000195825110045
0.012447558749
-0.000208029487021
0.000128411352267
-4.14859197362e-05
6.61981215696e-05
-0.000156114117015
0.0124027982538
0.000144662913988
-3.42705063764e-05
3.29196086187e-05
-0.00016229191164
-0.0124472188899
0.012466447387
0.000763983663726
-3.25095195165e-05
-6.13786438472e-05
-3.7715311649e-05
-5.42817592853e-05
0.000110387137576
0.0498479697222
-2.70732752773e-05
-5.35630592777e-05
-4.73629864276e-05
-3.35266034048e-05
0.000114331766544
-0.0497019075707
0.000665043809512
-3.49847632536e-07
0.0123921659388
8.24038791925e-05
-0.0124002842452
0.0124122880416
-7.40816159338e-05
8.67109698087e-05
-0.0124065057361
9.8995984496e-05
0.0124297522923
-6.32318015378e-05
7.37755560396e-05
-7.95089972013e-05
-0.0124254383227
6.47294490809e-05
0.000963304632861
-5.05338675393e-05
-3.64140713159e-05
-4.99375245822e-05
-3.18354171589e-05
0.0502991808812
5.03843859393e-05
0.0500516875308
-5.46485172038e-05
-5.04182716532e-05
-5.22349094547e-05
-4.75543369915e-05
0.000123127569954
-4.61547327811e-05
-3.63584674797e-05
-4.73946027224e-05
-3.29876766632e-05
0.0502615903776
0.000792029886893
0.000124252384058
6.9862689477e-05
0.0124112565398
9.93974070975e-05
-3.81190766275e-05
4.49818134281e-05
-0.012452995386
0.000122826484454
0.0124683777842
7.34297115776e-05
-4.31810173546e-05
6.38053314118e-05
-9.33971054955e-05
0.0124292432298
7.49012162896e-05
-3.56076188857e-05
4.28737393075e-05
-8.70782615744e-05
-0.0124426270101
0.0124475712038
5.33792570153e-05
0.012435499863
5.97612436373e-05
-0.0124385105912
3.78913071618e-05
-0.0124448389683
0.0124480029077
-3.03951057077e-05
6.43959741124e-05
0.00737333064152
-7.12178815881e-05
-6.09680541448e-05
-5.06542913599e-05
0.0465821457845
-0.00324821309666
-0.0460319147844
-0.0044263262382
0.0460272124109
0.00793728851113
-2.83957717788e-05
-2.79123058505e-05
-4.85510192046e-05
-0.0475027067727
0.00102361284922
0.00728914642247
1.36160108132e-05
3.96357861574e-05
3.02180398315e-05
-0.00799714753679
0.0389674986588
0.0187968001045
0.000637561625359
-0.00255495433965
-0.00177891087021
-0.0169444906288
0.000144758696993
0.0200904246487
-0.00782200545167
-0.00143515077073
0.0201872811744
0.000244733717478
-0.0193376046662
0.0202338583275
-0.000596256671487
-0.00849335391031
0.014080874393
-0.000152459443235
-0.00598413608802
-0.000968643218342
0.000118565683513
0.00660550356953
0.000523905593107
-0.001135093445
0.0135525831233
-0.00133998987012
-0.0059275062472
-0.000881240599856
0.00622770052169
-0.000657110142289
0.00507462201297
-9.39048960635e-06
1.39547778144e-05
-1.29566968371e-05
0.00501505144294
-0.0473731271329
0.0450251844979
-4.49369763722e-06
-7.32960498517e-06
-1.34460966414e-05
-0.0461401525388
0.00506609042654
0.00115504842086
0.00585403303399
0.0103247698031
0.000116003555761
8.98311295243e-05
5.31799728088e-05
-0.0077610845515
0.0388904654296
0.0103050785394
3.29913373901e-05
3.79920055181e-05
5.0751910645e-05
0.0128408780829
0.0302409286149
0.00132634783436
9.44773347135e-05
0.000100610789642
5.43894833726e-05
0.018901767851
0.00122039010393
-0.0169923188095
0.000744924473404
0.0193511552744
0.0165526527233
0.0017977986656
-0.0131171882195
0.0184890583545
0.00195588491893
0.00580664474145
0.00451772942108
4.55996935173e-05
-6.33917981085e-06
-3.25827636691e-05
0.0201893170499
-0.00779744211105
0.0240570878289
0.0104572531353
0.000138414021342
7.11360270579e-05
7.25991366869e-05
0.007084263887
0.000576996385486
1.64417235394e-05
8.75235133794e-05
-9.01562446876e-06
0.0220733471079
0.0131593129581
0.000257565861485
0.000965068569513
0.00739748113452
0.013525066474
0.00213495853112
0.00305478949187
0.00856923259432
-0.00270817201663
0.0123278569692
8.04285366771e-05
7.02200087287e-05
3.0113032077e-05
0.0114346449471
0.0319349071582
6.48798685836e-05
6.34110628763e-05
3.02502199033e-05
-0.0400710054975
-0.00622821212412
0.0148856379774
-0.0104326496422
0.00179702660593
0.00215629909388
0.018990635439
0.0226341454475
-0.0169600282943
0.00100398020286
-0.00518748934314
0.00840598144815
9.03135334075e-05
3.68906005952e-05
1.82233772816e-05
0.0222612542078
0.0254511907366
0.0110024776091
9.97263242279e-05
5.07702618865e-05
6.62063624213e-05
0.00802193281848
3.18300157905e-05
5.32219001393e-05
2.17781751487e-05
0.022016361286
-0.00991441979744
0.0154812382917
0.00268748466812
0.00362505939565
0.0115984049905
0.0210730451299
0.00144996678907
0.019380096912
0.00181110704566
0.0122451010356
6.30321618536e-05
1.53014502028e-06
1.44291560944e-05
-0.0122760255713
-8.00429332744e-07
-0.0122468877386
0.012214560449
1.70241369094e-05
2.07207749809e-05
-8.00154282163e-05
-3.26461390935e-06
-0.0123624491792
-5.10590916529e-05
-0.0123579709532
3.8574031146e-05
0.012337307992
2.20822829347e-05
0.0122170836011
3.91018711631e-05
-0.0123640182805
1.14754906453e-05
-0.0122787456002
0.012249554448
3.22119231207e-05
5.24398978076e-05
-0.0122783576418
-4.78206874209e-05
-0.0122627937281
0.012249571274
7.35188483808e-05
-2.85885179242e-05
-0.012356587639
0.012338310707
-3.00472551499e-05
-5.54709020802e-05
6.70797630825e-05
-0.012374258637
0.0122301794684
5.69868162238e-05
-0.0122857995803
-0.0123691779354
-0.0122211603914
8.50659529844e-05
-2.47698446658e-05
-4.97469702591e-05
0.0122187460999
-6.11786590945e-05
0.0122397044973
9.31011855534e-05
-1.02741467159e-05
0.0123347876824
-4.26023581436e-05
4.35512058606e-05
-7.44209635137e-05
8.90658841705e-05
0.0123216292477
-3.06526335317e-05
0.000120087947111
0.0122447178444
-5.15811455607e-05
0.0123179273322
-7.84693795631e-05
0.012299559101
6.48706908359e-06
9.86232666531e-05
-0.0123129608192
-0.0122816050388
9.34900715989e-05
0.012273181344
-1.25671958163e-05
7.74148841017e-05
-0.0123788992427
1.97102079065e-05
-0.0123780265173
8.73211478763e-05
0.0123635273401
-0.0122971220678
0.000116318063625
0.0122934979801
7.99005732758e-05
-0.0123868259133
0.0123220350463
0.000115674461806
3.53056052299e-06
-0.0123332999321
-0.00013339741488
-0.0123425149139
0.012338756346
0.000145636814181
1.41539446129e-05
-0.0123895121254
0.0123744443096
-9.94173882917e-07
-7.6887137788e-05
-0.0124002148661
7.28821504516e-05
0.0123166782297
-0.0123510223037
0.000129677612846
-0.0123963480304
-0.000144210606114
-0.0122935419012
-6.73664524731e-05
0.0123092550197
0.000164089828145
0.0122664091062
0.000116016889273
6.20578093757e-05
0.000102949438247
0.0123331738131
3.50945127523e-05
0.0123657838597
9.9489063812e-05
0.0122775266758
0.000140210547188
0.0123547867713
0.000107852290881
-0.000168812456611
0.0123336537453
-5.9578992937e-05
0.000185530343192
-0.0123087789686
0.000199506247112
0.0123416341851
-0.000187507510555
7.46473201841e-05
0.000125226823753
-0.000101135816581
8.07504660223e-05
-0.012353255836
0.000132267710232
0.0123588024507
-0.00014509916826
0.000214732733268
0.0123692675215
0.000119437874267
-0.0123189465229
0.000177818019681
-6.53797433816e-05
0.0123370472688
-0.000157901934801
0.0123381988072
0.000169705948456
3.06939107827e-05
0.0123785334035
5.4497267774e-05
-0.000104288444032
0.0123688085628
0.000100237011088
0.0123553316278
0.000188236204866
0.0123671485202
0.0123597074783
0.000193766297815
-6.68554693042e-05
-0.000219361600809
-0.0123839524927
0.0124199796558
0.000222486208539
9.12261469128e-05
-0.0123671064434
0.0123747950689
7.26352834348e-05
-0.000107054346352
0.000109334410482
0.0123945236086
0.000202860633949
-0.000252417165802
-0.0124123850774
-3.88135127102e-05
0.0124417955933
0.000263693184748
-2.43034214201e-06
0.0123735608521
0.000215030087179
-5.26851260805e-06
-0.000212309575377
1.84232738485e-05
0.000159064675979
0.0123817418669
-0.000156735359212
7.57172041608e-05
0.0123981332814
0.000146399046157
0.0124041285464
-1.08856934561e-05
-0.000253906497471
0.00023434095476
1.34417567927e-05
0.0124197925383
0.000158859174198
-0.000285142578384
2.17389620891e-06
0.0124977294953
0.000288255567699
-6.18217795312e-05
-0.0124795613036
0.000298754349015
0.0125532080241
-0.000310072564914
-0.000102640770489
5.41764241665e-06
0.000196978692528
-0.000182751688581
-0.0124117252125
-2.4153334889e-05
0.000184130074845
0.0124427835383
-0.000283573253728
-7.21580556037e-05
0.000173121920679
0.000306729838584
0.0125558845069
-9.04296311124e-05
-0.0124397851082
0.000254343597936
-6.6642270941e-05
0.0124738314528
-0.000240716189564
0.0124536267431
0.000235898759484
9.51925609258e-05
0.0124110310847
6.34348852886e-05
-0.00014623601899
0.0124210415528
0.000135282464074
0.012485021555
0.000250714059636
0.0124286010963
0.000264853769487
-2.25346197082e-05
0.0125130759251
-0.0125263787636
-0.000278345931351
0.000269762604805
0.0125625033397
-0.0124255863045
1.22915638857e-05
0.0124537111641
6.27265435558e-05
-0.000142987008084
0.000141240954484
0.00026231255741
0.0125603248701
-0.000183490485649
-0.0123796221923
-2.20472782214e-05
0.0123929716853
0.000172381373706
0.0123603395137
0.000166564521289
-0.0123629073396
3.46169629381e-05
9.09336342369e-05
0.0123807922979
-4.42196135626e-06
0.0124004252884
-0.012408155996
7.10127747274e-05
0.0123759098154
-0.0123803771342
0.000158909413837
0.0123928158378
7.56925348874e-05
-0.000198564109165
0.012414852977
-4.24809462182e-05
0.000186509639104
-0.012402133965
0.000211774546597
0.0124382622996
5.99535662876e-05
0.000103742922768
7.61990212922e-05
-0.0124029069198
8.743768962e-05
0.0124080887308
0.000200934173125
0.0124474345748
8.16720888562e-05
0.0124306506445
0.000174575515422
-3.58729853713e-05
-0.0124100346805
-0.000191231882462
-0.0124466819085
0.0124747035368
0.000183471607841
6.76695649646e-05
-0.0124113675448
0.0124164790286
4.77398883026e-05
-6.59010182461e-05
-0.0124021605921
5.83395239623e-05
0.0124605506991
-0.012424629609