/*--------------------------------*- C++ -*----------------------------------*\
| =========                 |                                                 |
| \\      /  F ield         | OpenFOAM: The Open Source CFD Toolbox           |
|  \\    /   O peration     | Version:  v1906                                 |
|   \\  /    A nd           | Web:      www.OpenFOAM.com                      |
|    \\/     M anipulation  |                                                 |
\*---------------------------------------------------------------------------*/
FoamFile
{
    version     2.0;
    format      ascii;
    class       volVectorField;
    location    "3.8";
    object      U;
}
// * * * * * * * * * * * * * * * * * * * * * * * * * * * * * * * * * * * * * //

dimensions      [0 1 -1 0 0 0 0];


internalField   nonuniform List<vector> 
28582
(
(0.806159109643 -0.00154101374195 -0.000310525849109)
(0.805597444181 -0.00336983784639 -0.000452273970288)
(0.80590914572 -0.00157708445189 -0.000870127863502)
(0.805466557737 -0.00326261357342 -0.0012771141745)
(0.805226000829 -0.00189663597534 -0.0015640266647)
(0.804890076215 -0.00372070761997 -0.00244806792041)
(0.804798985929 -0.00158932055789 -0.00236340612028)
(0.804565799842 -0.00326751257446 -0.00325273071851)
(0.512521664127 0.0947514247569 -0.00745124697927)
(0.469714467125 0.121686538477 -0.00334864823609)
(-0.0593869069073 -0.0219133899381 0.0128269184512)
(0.804587278044 -0.00261597048804 -0.00248373293129)
(0.796530280417 0.000209622341263 0.000649838821296)
(0.796842419416 0.00133960370533 -0.0010852382863)
(0.803740136085 -0.00374002910926 -0.00372526387054)
(0.803386511583 -0.00362148404387 -0.00209313271947)
(0.796639588966 0.00156291648956 -0.00137984425185)
(0.802771799901 -0.00403144089841 -0.00383018263318)
(0.802681125309 -0.00395098524599 -0.00346063040781)
(0.808070553435 0.00101483519546 -0.000127241734281)
(0.804710612207 -0.00409836170322 -0.000498764631998)
(0.804338509186 -0.00412432708938 -0.000587373498908)
(0.808195703559 0.00117999292679 -0.000333495507005)
(0.804590992461 -0.00386443883819 -0.00176290432014)
(0.804432204875 -0.00400547684764 -0.00189100052469)
(0.807807353289 0.00138465591765 -7.15560099268e-05)
(0.804034683806 -0.00421003972664 -0.00343498956636)
(0.807011082789 0.00379482095485 -0.00102452157507)
(0.803702742484 -0.00404278607673 -0.00475227688817)
(0.442096145898 0.108684652518 -0.00433168524408)
(0.00967396863049 0.0181129062355 0.0171225113358)
(-0.0205801181314 0.0492242517026 -0.0630695007983)
(0.807853428231 0.00175523658265 -0.00117643605769)
(0.805505411062 0.000831114774628 0.0005787531335)
(0.797644702681 -0.00158307956542 -0.000247470577432)
(0.797518840197 -0.00265526364694 -0.0010531832393)
(0.804208879473 0.000635488497401 0.00184925588273)
(0.803358004025 -0.00391921909037 -0.00614139335479)
(0.803591182184 -0.0038335042069 -0.00277462798368)
(0.803471531305 -0.00379007336985 -0.00358318228637)
(0.802806802407 -0.00404766263946 -0.00454139731427)
(0.789589275691 0.000904469324202 -0.0046067346159)
(0.802661152798 -0.00391678802879 -0.00408003656807)
(0.802807418335 -0.00324820882611 -0.0047245442811)
(0.496900390979 0.114500916929 -0.00667039771743)
(0.472176052619 0.112962972141 -0.00236269345104)
(0.080921789122 0.0336580582044 0.0317849210863)
(0.0752750949105 0.0129583459003 0.0418268392878)
(0.489758394585 0.12185456317 -0.00480041501674)
(0.106281909473 0.0102982853487 -0.0116290673361)
(0.804264656746 -0.0012524515185 -0.000959321265436)
(0.804013424334 -0.00266833924018 -0.00237483802484)
(0.79684447732 0.000374872685331 -0.000241271480313)
(0.79637462945 0.00178650718467 -0.000440247272754)
(0.803765081957 -0.00236952957258 -0.00198864691483)
(0.796641206397 0.00161746030979 -0.000890080848747)
(0.804384239392 -0.00166093121686 -0.00178710819857)
(0.80398639988 -0.00288645057204 -0.00264594119124)
(0.804103096063 -0.0022686173756 -0.00233530854028)
(0.796975417459 0.000844219504734 -0.000713667693235)
(0.796756539286 0.0010451725896 -0.00167382294416)
(0.803763539374 -0.00315595032843 -0.00292541615183)
(0.796875720762 0.00122439172443 -0.00122790849069)
(0.804390682748 -0.00198734914955 -0.00223604277221)
(0.803283331198 -0.00368316319852 -0.00317549345491)
(0.803812694839 -0.00253083624447 -0.00264710684185)
(0.796102454913 0.00164014441666 -0.00178060774949)
(0.796564267716 0.000918206148287 -0.00190601348737)
(0.803563797443 -0.00341499821295 -0.00318174405905)
(0.796120226598 0.000939322017227 -0.00209903418858)
(0.803468128891 -0.00267233380795 -0.00292327842677)
(0.80281457971 -0.00297968733727 -0.00398964234357)
(0.794137679112 0.00133700014145 -0.00244698694859)
(0.794339375779 0.000948099333131 -0.00255130492404)
(0.803114354069 -0.00392971664487 -0.00352422844737)
(0.795327570234 0.001518284534 -0.0021155010958)
(0.79523425595 0.000923825393617 -0.00225844955433)
(0.803321694685 -0.00286632176462 -0.00364609371827)
(0.802710809306 -0.00356458652536 -0.00406061708952)
(0.794082251122 0.00156049000218 -0.00314025819646)
(0.793935764028 0.00123817057466 -0.00354229730078)
(0.802808956108 -0.00371277918196 -0.00307001237909)
(0.79501144489 0.00138128076418 -0.00303827104058)
(0.802575844343 -0.00338471867355 -0.00338178993601)
(0.794969948899 0.00194099436242 -0.00267499350518)
(0.532883514299 -0.00070026987014 -0.00315228335331)
(0.159434788982 0.0603330711036 -0.0905507096775)
(0.486584544942 -0.0850370402957 -0.0022866733685)
(0.48081425142 -0.0524378102942 -0.000707153065901)
(0.0953880995433 0.0679343681473 -0.0351656361709)
(0.0844565358778 0.0303077171928 -0.0584553092363)
(0.435562080224 0.0956116710087 -0.00332613365838)
(0.0582724271262 0.0701817101059 0.0701789523468)
(0.0327072117924 0.0189556933604 0.0947782335757)
(0.368781575319 0.083206928484 -0.00354794352433)
(0.0692941213014 0.083182415756 0.111046475732)
(0.386545340893 0.0822297014789 -0.00637769930269)
(0.00319441854021 0.0176336401124 0.137401130967)
(0.805856021546 0.00327183882371 0.000479574679032)
(0.80655002862 0.00526809239134 -0.000826296295774)
(0.797861656476 -0.00207028772774 -0.000921960533543)
(0.797082542652 -0.00183212065924 0.00208353492367)
(0.806947851792 0.00423524319793 -0.0011686004186)
(0.805312489952 0.00432586657526 0.00148256559599)
(0.79764015654 -0.00222305582094 0.00112382657927)
(0.806385018954 0.00239711203139 -0.00058431375465)
(0.807725386831 0.00219011170706 -0.00174627784232)
(0.797826579159 -0.00239135130495 -0.00115155076496)
(0.797145866115 -0.00264907617845 0.000690349740953)
(0.807334428382 0.0031501661988 -0.00182403363944)
(0.806559896831 0.00118881414577 -0.00069664743435)
(0.797627767047 -0.00245165660871 0.000854446535801)
(0.796803309807 -9.56153619068e-05 0.00233133153549)
(0.796734047589 -0.000544265709264 0.0018969924603)
(0.804527049544 -0.000179564810741 0.00164860000991)
(0.805253691956 0.00134660485108 0.00124907205345)
(0.797073190798 -0.00266382558647 0.00165247902373)
(0.805549181376 0.000358827236557 0.000938682773421)
(0.797485373136 -0.00234573119566 0.00197060814977)
(0.802778247324 -0.00300122501074 -0.00473362816908)
(0.793019915648 0.00120093696317 -0.00263745698484)
(0.793092173695 0.00100941222638 -0.00271690940274)
(0.802395278862 -0.00394748433983 -0.00503881558407)
(0.791692344767 0.000987818479752 -0.0031123701941)
(0.80212342001 -0.00306919475701 -0.00536379753152)
(0.791942400308 0.000954108344319 -0.00317552243697)
(0.802488498745 -0.00378373497444 -0.00589025267139)
(0.801794298789 -0.00288187087795 -0.00772203630798)
(0.790659492655 0.00103226129185 -0.00356453575806)
(0.790067370913 0.000970308550805 -0.00418961279472)
(0.802279288038 -0.00294078542344 -0.00628657207713)
(0.802185978548 -0.003576249304 -0.00687380432776)
(0.79073122534 0.000843756919064 -0.00345419995644)
(0.802893114166 -0.00346812251229 -0.00458416151343)
(0.802868033417 -0.00357270538453 -0.00451790207537)
(0.792840450229 0.00140788067285 -0.00309629181516)
(0.792747773235 0.00111655664467 -0.00364758073983)
(0.79177506602 0.00107876566312 -0.00353818636659)
(0.802521557498 -0.00376854746249 -0.00434870488942)
(0.791657608229 0.00105467092269 -0.00339646597287)
(0.790780186523 0.000921982885861 -0.00330750600521)
(0.789712728744 0.00104841142319 -0.00317372251536)
(0.802461285185 -0.00303209303284 -0.0048346692636)
(0.802544976199 -0.00346011334521 -0.00492226267766)
(0.789644693415 0.000871404307849 -0.00383232791289)
(0.802249536675 -0.00333354912047 -0.00530361576656)
(0.790590294149 0.00101729386972 -0.00352917420381)
(0.804538397342 -0.00425469278434 -0.00430391484349)
(0.803460479336 -0.00372438345488 -0.00706868116959)
(0.301948073249 0.0568953161468 -0.00912112841823)
(0.0824209176519 0.0280634461391 -0.184279982473)
(0.805920308987 -0.00108252818096 -0.000485605336067)
(0.796642579831 -0.00071437597242 0.00156148691514)
(0.803760105243 -0.0037911712387 -0.00450919051954)
(0.805039567863 -0.00378779778906 -0.00583027824069)
(0.788457064406 0.00129681453714 -0.00506503996735)
(0.788439208658 0.000505114813835 -0.00342851423854)
(0.786409556486 -0.000143317215809 -0.00597894817884)
(0.805640077482 -0.00361778684451 -0.00516714914644)
(0.807395838075 -0.00353522579711 -0.00356198912235)
(0.785947706098 -0.000374815057309 -0.00700399064265)
(0.784501201008 0.000659967640517 -0.005238243153)
(0.525526881725 0.0390923490306 -0.00343312531594)
(0.275507858989 0.0697668881206 -0.00437782640704)
(0.183837192438 0.0622308069693 -0.00926527584216)
(-0.00149092579922 -0.0400185588116 0.135768647602)
(0.101647005419 0.057275242144 0.112230246551)
(0.102016043721 0.0286311079483 0.108859228114)
(0.0664118113958 0.0726089361742 -0.0113908326063)
(0.00454845410063 0.0873745881187 -0.00665453009058)
(0.805627377676 -0.00157646040165 0.000879228225711)
(0.804816216684 -0.00087049209478 0.00114381275223)
(0.796699466323 -0.00273894357256 0.00144824538484)
(0.796577292767 -0.000678733407676 0.00105434943323)
(0.805710936086 -0.000619765314261 0.000612736916417)
(0.796265647806 -0.00247424572411 0.00128288083127)
(0.804805339407 -0.00163030262686 0.000343821224087)
(0.802598526289 -0.00341612861054 -0.00894977846861)
(0.802196715881 -0.00246090986689 -0.00838948157881)
(0.788216202797 0.00133749730064 -0.00644204631732)
(0.788785335492 0.00060554873188 -0.00448970968184)
(0.802394997624 -0.00238697462107 -0.0102020594913)
(0.802425497807 -0.00338983266864 -0.00752347200524)
(0.788394848996 0.000827439840925 -0.00549308930495)
(0.802506682076 -0.00323019989232 -0.00729598463042)
(0.802425781354 -0.00298530011729 -0.005358800631)
(0.788434894896 0.000745851737443 -0.00410422299107)
(0.787759045799 0.00057830246956 -0.00425005977369)
(0.802347845639 -0.00311942548711 -0.00595050558799)
(0.787698305203 0.00050974668984 -0.00504579978389)
(0.802440454974 -0.00305873361362 -0.00665734983908)
(0.803517070854 -0.00337238563418 -0.00756826574194)
(0.804675536293 -0.00324677411153 -0.00880876380256)
(0.78651327856 -0.000133101653215 -0.0062056988725)
(0.786537127634 -5.18040663434e-05 -0.00502209656791)
(0.804789139333 -0.00346724266556 -0.00900411701977)
(0.786697002586 -5.37677107723e-05 -0.00546497301599)
(0.803427161376 -0.0032377449827 -0.00709721818075)
(0.807474850091 -0.00327330512259 -0.00881832652272)
(0.805773581613 -0.00322359137728 -0.0083282807892)
(0.785849155862 -0.000526214211975 -0.00659220605339)
(0.785560434922 -0.000238362734384 -0.00709261326727)
(0.805657515195 -0.00351916968096 -0.00842138890081)
(0.785166749642 -0.00061361544297 -0.00696186456168)
(0.807951339979 -0.00284036296587 -0.00871895887758)
(0.808106993803 -0.00295599959472 -0.00805261932211)
(0.809677877447 -0.0022596841991 -0.00525393580822)
(0.784227610983 0.000136722700651 -0.00611979765657)
(0.785089236321 0.000388050291185 -0.00668408878719)
(0.809390802036 -0.00276145725142 -0.00629178899338)
(0.78437812199 7.74683974262e-05 -0.00699566684273)
(0.808450429427 -0.00250456318925 -0.00752068735012)
(0.787634700013 0.00878587033252 0.000110372821128)
(0.793335448911 0.010875103724 -0.00100352487311)
(0.797145643036 0.0156098438127 -0.00243971238655)
(0.79956672281 0.0113576520215 -0.00187591568476)
(0.685547535872 0.105680471652 -0.00221766343069)
(0.426064683424 0.114008204096 -0.00479123899051)
(0.683062934289 -0.0158269713252 0.0023943874485)
(0.469909778119 -0.0230865119973 -0.00371097153015)
(0.457650151773 -0.160922923368 -0.000260634614721)
(0.161444519742 -0.0786998928121 0.0185356744296)
(0.140795612108 -0.0613210939224 0.33198756661)
(0.126114268084 -0.0455146218185 -0.0945544697972)
(0.14374558156 -0.0412595130015 0.166355172801)
(0.116941094072 0.0580234014039 -0.131973168441)
(0.210265232808 0.0810211020762 0.210340506792)
(0.784648662166 0.000589229288342 0.00177399307523)
(0.785767193853 0.0030916821024 0.00146666330028)
(0.790303930676 0.00117930866771 0.00356204494466)
(0.791320927252 0.00417709168322 0.000475702874173)
(0.783105221307 0.00584270071157 0.00209203615115)
(0.790198354545 0.00481491141178 -0.000418421291055)
(0.787366073134 0.00608837704217 0.000951233822979)
(0.790411826404 0.00803959567771 0.000724482151783)
(0.791622340535 0.00462697130622 -0.000311333379615)
(0.793311733537 0.00534504981934 -0.000330621777287)
(0.786662460478 0.0138697793357 0.0017478567305)
(0.790711801311 0.0107863122819 -0.000274558709568)
(0.79181583453 0.01432294134 -0.000867809436222)
(0.7908553286 0.00549928289394 -0.00112441956953)
(0.79078512194 0.00775373756625 -0.00452563185029)
(0.792638231332 0.0061529127876 -0.000756335995696)
(0.793277049619 0.00802577359213 -0.00449830481717)
(0.794667806136 0.0184045486079 0.000701385037336)
(0.799585662032 0.0213246090533 0.00269629798918)
(0.790988228628 0.00852147816128 -0.00323775741506)
(0.795142865636 0.0131695896996 -0.00048318607721)
(0.793614488885 0.00923360316331 -0.00383538844083)
(0.797186565935 0.00984790202486 -0.002903763137)
(0.794603367192 0.0134256794426 -0.0023959516647)
(0.796459608477 0.0117001304717 -0.00241161936945)
(0.793559558588 0.00552815514377 0.000422194238374)
(0.793979161249 0.00687624841643 -0.00373510435631)
(0.795126962495 0.00454992338702 -0.00314076812968)
(0.800727360646 0.017105149961 -0.00114824605778)
(0.798326328448 0.0130726016588 -0.00211703788575)
(0.801494059011 0.0140677782757 -0.00153588176016)
(0.794384946494 0.00716414952612 -0.00354330174987)
(0.797421234105 0.00863160435681 -0.0030808047499)
(0.795461650589 0.00541103382288 -0.00312675557646)
(0.796542801054 0.00512899128677 -0.00271182967852)
(0.79602216614 0.00410427084023 -0.00281562435031)
(0.79667110177 0.00456733900399 -0.00254262571997)
(0.738367006772 0.0933189978926 0.00333515596488)
(0.744091735434 0.136023810053 0.00133000430559)
(0.698242619396 0.142066697901 -0.00108212782843)
(0.282430203306 0.0124986954684 0.0552878009012)
(0.348935417731 0.0105958763606 0.216766884659)
(0.331477468629 0.0107714297358 0.193207227461)
(0.338394585771 -0.00539747180832 0.246813077009)
(0.295926743356 0.00672972688691 0.198976765135)
(0.161431661535 0.0097138550785 -0.0022873880026)
(0.294176539243 -0.0139413517713 0.209399113318)
(0.149570025859 -0.00725325684335 0.0436966847049)
(0.739175985554 0.11236534264 0.000287807562785)
(0.722979535423 0.0407525863941 0.00282696049542)
(0.564531487401 0.11227047739 -0.00678168632359)
(0.68002591589 0.0359002107904 8.89769191476e-05)
(0.588926946159 0.0539643487927 -0.00481346215835)
(0.28957053693 0.000810389069541 0.253228071605)
(0.329725001645 -0.00921461096242 0.290178226275)
(0.23770472273 0.0329700334166 0.250809489887)
(0.312858427713 0.0307232125768 0.338104475335)
(0.314577732772 0.119916853121 0.00283199523177)
(0.441434858354 0.0624075833825 -0.00476800599748)
(0.348466975108 0.0558189668808 0.000908089734618)
(0.275132533788 -0.0225718796835 0.241228978725)
(0.158569275993 -0.0152935316084 0.146316031005)
(0.268859087183 0.0297872922455 0.297821088206)
(0.166171872147 0.0431939930721 0.198610390999)
(0.610830216646 -0.0167641186581 -0.00353455737501)
(0.607982831845 -0.0695495672247 -0.00276825607762)
(0.184441769341 0.0190664379478 0.153759204004)
(0.316614310682 0.0284430960191 0.316776329172)
(0.35942530582 0.0358910399085 0.287251258316)
(0.359807284628 -0.0387688692837 -0.000640921724235)
(0.469914347275 -0.100647057709 -0.00311007410138)
(0.366734479891 -0.126420478729 0.000104093447131)
(0.284905165298 0.0376103108069 0.31696799666)
(0.218598682224 0.0559391514912 0.230197013449)
(0.357056748161 0.0458634086398 0.294138465304)
(0.327503153998 0.0539446711203 0.221229973785)
(0.784933540697 0.00021730389962 0.00415815102455)
(0.783601043805 -0.000550481389881 0.00441390337036)
(0.790874168803 0.000742372878329 0.00411743448895)
(0.790428219265 0.00223729470766 0.00282199765102)
(0.783449144268 0.000495438440565 0.00368164461391)
(0.791046935635 0.00198611128898 0.00312135436035)
(0.784924533086 -0.000362614351421 0.00519990519414)
(0.78517692193 0.00152340335427 0.00362256474203)
(0.78482173345 0.00386206199265 0.0010188758086)
(0.790383115119 0.0029540716534 0.00171978992015)
(0.791610329308 0.00396862283454 0.00156250994991)
(0.783944358524 0.00221912748341 0.00239570881699)
(0.785920808331 0.00269953360493 0.00246730594407)
(0.791289476191 0.00303517955104 0.00263139083871)
(0.782852100148 0.00429273747265 -0.000564460750271)
(0.784359563473 0.00477951606356 0.000355077025748)
(0.789852354427 0.00359389154639 0.000549108930811)
(0.789725585406 0.00541105599731 -0.00265955509286)
(0.783269142622 0.00291894604304 0.00137181746846)
(0.784128527785 0.00647726535502 -0.00162312396899)
(0.789333261342 0.00384703850437 -0.0015667151125)
(0.788081666715 0.00551352695325 0.00076823742858)
(0.78611647945 0.00522588381705 -0.000390500384083)
(0.792086967026 0.00468343136376 0.000632887126628)
(0.792115723197 0.00549514365889 -0.000847538725523)
(0.786911493293 0.00440039061389 0.00134420332071)
(0.787204837255 0.00668665332905 -0.000910114784114)
(0.792359848316 0.00509673971708 0.000325625519274)
(0.789358247113 0.0068751153926 0.000612033693759)
(0.789984874879 0.00905158687748 -0.000496816736806)
(0.792514831955 0.0053647530587 -0.000461234045614)
(0.793460841605 0.00484516369315 -4.46830658018e-05)
(0.788694062661 0.00787595986888 -0.000710799448843)
(0.790602322295 0.00780582843539 0.000328102896208)
(0.793213184995 0.00489581957094 7.19903691825e-05)
(0.78770713765 0.00994373234352 -0.00370697215989)
(0.785755556351 0.00674190479848 -0.000779188360727)
(0.790263183947 0.00606668907443 -0.00310237961289)
(0.791370956114 0.00602110622828 -0.00170675212404)
(0.785959514014 0.00836327076231 -0.00328843124458)
(0.787323691049 0.00810971136357 -0.00148101313887)
(0.791621812554 0.00687386540137 -0.00322178701437)
(0.788702300514 0.0113578615227 -0.00299824428416)
(0.789089724239 0.0124220570047 -0.00421521952471)
(0.790336729296 0.00729306935433 -0.00430703447807)
(0.790878181887 0.00854878813993 -0.00471794908607)
(0.786900253332 0.0101192751631 -0.00339043339048)
(0.790540382548 0.0135116849888 -0.00436178590524)
(0.790947902655 0.00787056288234 -0.00337893289265)
(0.789327806076 0.0108801661556 -0.00375562719434)
(0.790156045598 0.0105042757748 -0.000898049011023)
(0.792272355311 0.00628928068907 -0.00140663763369)
(0.792473761836 0.00668637123582 -0.00214075779317)
(0.788829988777 0.00958020216011 -0.00128869151724)
(0.790406045492 0.0119045731667 -0.00306792887896)
(0.792200904154 0.00663890194305 -0.00280604246988)
(0.790345551266 0.0122456084624 -0.00359199293005)
(0.793608530626 0.0143903438085 -0.00558556372136)
(0.791639709104 0.00825966706815 -0.00458591959481)
(0.792521379374 0.00702473951323 -0.00336739013575)
(0.792063070283 0.0137747713148 -0.00540119665701)
(0.791566016621 0.0127245676441 -0.00374771253179)
(0.791756077216 0.00717264793628 -0.00338668943252)
(0.795383220908 0.0167187818632 -0.00173040379951)
(0.790600198844 0.0138621498709 -0.00138234059152)
(0.791563570449 0.0101771414269 -0.00307875640141)
(0.792017952263 0.00890636740573 -0.00513391780836)
(0.79304736991 0.0163024104512 -0.000622254472202)
(0.792392410977 0.014343352503 -0.00364769975846)
(0.793824608995 0.0102967816171 -0.00407037713945)
(0.797576732427 0.0183952394325 0.000967805027617)
(0.799633299077 0.0198280021603 0.0046183610572)
(0.792943944633 0.0123817332608 -0.00250900095137)
(0.795071894733 0.0123887303943 -0.00106452042283)
(0.795793368745 0.0186042491059 0.00125342362525)
(0.794504728213 0.0119643450099 -0.00105783461364)
(0.800727384888 0.0196627164362 0.00336443929112)
(0.797042875878 0.0166369861854 -0.00448404618)
(0.79526234554 0.0153890088725 -0.00413795384361)
(0.793094855169 0.00971326259967 -0.00554397207293)
(0.794111459745 0.00931214053584 -0.00403581484802)
(0.794012926632 0.015416145728 -0.00526900395674)
(0.79767269704 0.0165234208188 -0.00403965228995)
(0.794601804061 0.00973409068127 -0.00474085074146)
(0.799118737735 0.0177842014296 -0.00163916935279)
(0.802539339074 0.0177092880829 -0.00180583161602)
(0.795761145158 0.0109722036711 -0.00204491436174)
(0.795497718306 0.0089682711313 -0.00424264105915)
(0.799736717937 0.0169572608469 -0.00385950709818)
(0.795317692399 0.010135187639 -0.00204288388987)
(0.801709885157 0.0186751895429 -0.000450096622396)
(0.792810330371 0.0114360567018 -0.00176912877701)
(0.79143532077 0.0108998617664 -0.000123288878212)
(0.793035359576 0.0060877925099 -0.000830347414368)
(0.793991925472 0.00501085852596 0.000832592937228)
(0.791753455796 0.0119512251111 -0.00229489765298)
(0.792594167449 0.0103841445977 0.000113086351953)
(0.79378176432 0.00541824090838 -0.000142844917109)
(0.793808180195 0.0123764354581 -0.00256425177957)
(0.79474735701 0.0140677007755 -0.00553218875466)
(0.793232479274 0.00681480919868 -0.00244600365894)
(0.79366690826 0.00614669436265 -0.0029055476803)
(0.792713571901 0.0130707254857 -0.00329662142621)
(0.795390997633 0.0133851982111 -0.00491819176383)
(0.79343845745 0.006046886062 -0.0013633976154)
(0.794839435969 0.0116255701054 -0.00203405262165)
(0.797330059538 0.0120266296567 -0.00469647287568)
(0.794091771048 0.00528616948606 -0.00266264713257)
(0.794456466797 0.00399644514664 -0.00186974921542)
(0.796352303474 0.0125279391213 -0.00419346052873)
(0.795686077418 0.0109432561049 -0.00272613147127)
(0.794100590777 0.00466485150778 -0.00114017774689)
(0.799411128841 0.0146359962697 -0.00519433350096)
(0.796314127577 0.0148302803259 -0.00454295484741)
(0.794659530555 0.00792304549065 -0.00383457997244)
(0.794839802537 0.00623922050454 -0.00428101736873)
(0.798549298543 0.0155967523562 -0.0048653107014)
(0.796930010553 0.0139520985329 -0.00550309311478)
(0.795847122536 0.00694635032404 -0.00407870233442)
(0.800974256762 0.0153077750921 -0.0042483728519)
(0.802914141459 0.0167685171878 -0.00294139938804)
(0.796055641911 0.00889491646052 -0.00419335007415)
(0.796546311468 0.00732967255128 -0.00257989094203)
(0.800554248475 0.0165894819038 -0.00470863749946)
(0.796326794332 0.00760202414918 -0.00271909645385)
(0.802826539232 0.0155298993605 -0.00270136453845)
(0.799982155253 0.0139343243826 -0.00468192611882)
(0.798484522097 0.0127346738957 -0.00424414939597)
(0.795335526012 0.00601973173419 -0.00401574627679)
(0.795656905193 0.00545292503939 -0.00296813921074)
(0.797691205788 0.0133979513822 -0.00476790933714)
(0.800111950867 0.0134468802308 -0.00386910301588)
(0.796165006071 0.00597097091704 -0.00387747615272)
(0.801353690209 0.014202108457 -0.00365521115591)
(0.802869175264 0.0134433923701 -0.00276944135339)
(0.796630582192 0.00581792539595 -0.00243314593015)
(0.796103619731 0.00509410679228 -0.00307618566642)
(0.801394831764 0.0134137353057 -0.00395590516122)
(0.796439820192 0.00572425849341 -0.00265245805049)
(0.802880012168 0.0142156642669 -0.00246132753065)
(0.800812192536 0.0116467967927 -0.00315335311456)
(0.79923653424 0.0120889621173 -0.00349400262097)
(0.796032005566 0.00430077763622 -0.00247733471918)
(0.795937761076 0.00355037724008 -0.00268116990327)
(0.800575204367 0.0125465622326 -0.00306150146973)
(0.799663938185 0.0113674920992 -0.00354011618593)
(0.796261994737 0.00357940543349 -0.00264395970323)
(0.802799919763 0.0128287590521 -0.00237970865495)
(0.796329444256 0.00456205323815 -0.00268357240346)
(0.801509643731 0.0127944259805 -0.00310339977533)
(0.808443134215 -0.0027936872976 -0.000333187083405)
(0.806892422532 -0.0053467270855 -0.000626260655931)
(0.805169732199 -0.00584166591441 -0.000825622163199)
(0.804283313318 -0.00404356994035 -0.000528254914731)
(0.804311354873 -0.00362666017865 -0.000356161084512)
(0.803232803882 -0.0128162075736 -0.000347521578275)
(0.807903662192 -0.0029688953193 -0.000647775543958)
(0.806464036959 -0.00582295591045 -0.00105341381251)
(0.804973458132 -0.00640484045103 -0.00171377917966)
(0.804524919873 -0.00391812617936 -0.0016033502615)
(0.804494854484 -0.00351252778024 -0.000368876755834)
(0.803347592498 -0.012555056047 0.000441214456095)
(0.818840666852 0.00505229466306 0.000648435982741)
(0.815645494799 0.00319864182106 0.00216124243048)
(0.792853844686 -0.00323065920261 0.0139637073687)
(0.787904428504 -0.00642342303803 0.0145816921355)
(0.788184769789 -0.00668444255223 0.0121573472959)
(0.789536068301 -0.00496277416208 0.00592501117314)
(0.797223767007 -0.00256088072442 0.00195308461195)
(0.788972402117 -0.00503553611801 0.00111465672764)
(0.824999581393 -0.00023029043971 0.000107510040993)
(0.820748863435 -0.00496038979164 0.000272934854033)
(0.813861319257 -0.0169926298584 0.00396041506634)
(0.804387417169 -0.0177900106618 0.00387868597479)
(0.800755959442 -0.0136972244045 0.00250816147181)
(0.798105273039 -0.00969493391948 0.00102184186002)
(0.80055985097 -0.00563130686057 0.00030795108051)
(0.793565413677 -0.0129117931023 0.000167440030546)
(0.81768332097 -0.0011830968407 -0.000250154802007)
(0.816598114724 -0.00659953987885 0.000229110999424)
(0.811249865476 -0.00987895660826 0.000714949479595)
(0.805519554771 -0.00984210092001 0.000949168789457)
(0.80277447007 -0.00888789097395 0.000832464434176)
(0.801056746345 -0.00687190757638 0.00016237220256)
(0.802203198899 -0.00474896643786 -8.30852086344e-05)
(0.797185244933 -0.0142872111558 -6.66076563369e-05)
(0.812810894795 0.00127393409614 -0.000461457262342)
(0.812377241079 -0.00403100339051 -0.000111445303913)
(0.808804641922 -0.00767436025932 0.000113226910918)
(0.805123451578 -0.00851740010143 1.40710054494e-05)
(0.803735939038 -0.00830426555984 -4.48877330206e-05)
(0.802671138967 -0.0069351464384 -0.000294700890762)
(0.803387158109 -0.00500015848152 -0.000273467533064)
(0.800225898744 -0.0157321388608 -0.000194846382976)
(0.804372262322 -0.00584013790418 -0.000750322216471)
(0.80386825471 -0.00519747931491 -0.000719103556584)
(0.804107343538 -0.00417418405475 -0.000454756703639)
(0.802205299519 -0.0143628036542 -0.000385835140621)
(0.642506393065 0.0408770102865 0.0119215541245)
(0.642110258296 0.040247573706 0.0195312089612)
(0.678032041569 0.00632353306827 0.0316752769171)
(0.719421590389 -0.00888089123379 0.0220608350194)
(0.753862218749 -0.00955000522956 0.0110816229904)
(0.773344525828 -0.0070099476537 0.00507035666459)
(0.792436687628 -0.00361495937675 0.00249393143552)
(0.784521268601 -0.00655916491887 0.00266462171918)
(0.776627742703 0.00815541718323 0.00728512731947)
(0.775902455684 -0.00107293342316 0.0111170966634)
(0.788109251028 -0.0233087004336 0.0130529031059)
(0.789859621949 -0.0261748386565 0.0090983660703)
(0.793067624729 -0.0214266686574 0.00535128740285)
(0.79391393259 -0.0140555852557 0.00205347017094)
(0.799736759822 -0.00709149066082 0.00133257829564)
(0.792792638648 -0.0146421370367 0.00196566607564)
(0.818750949369 0.00070021309901 -0.000415695469018)
(0.816719572601 -0.0080929501599 -0.00022630736105)
(0.811990006418 -0.0124478894617 0.000298162546627)
(0.805961279163 -0.0126405758977 0.000104891933353)
(0.802759684555 -0.011030481225 -0.000100141631393)
(0.800669667747 -0.00815349454074 -0.000819602980372)
(0.802235546562 -0.00541643064054 8.71804888357e-05)
(0.797073269352 -0.0149783893668 0.00131213383229)
(0.812945256019 0.000162544171306 -0.000835235449958)
(0.812557557476 -0.00403247651515 -0.000636656301546)
(0.808966619687 -0.00685438628585 -0.000555938646646)
(0.805062077324 -0.00783522869331 -0.00103899009355)
(0.803439698272 -0.00789177966034 -0.00119709491522)
(0.802845139876 -0.00664364617851 -0.00138194904949)
(0.803524035925 -0.00506174755862 -8.52363572114e-05)
(0.800111995531 -0.0159829935014 0.00109663390646)
(0.804467291075 -0.00622470913118 -0.00176703351074)
(0.804345320462 -0.00541828598506 -0.00171570776061)
(0.804435218708 -0.00431911802104 -0.000301275686531)
(0.802467984543 -0.0145938938019 0.000702403795692)
(0.633873248253 -0.0166100889755 0.0208103025565)
(0.632242342537 -0.0196311992477 0.028134486715)
(0.666954501083 -0.0355947920938 0.0153574674614)
(0.711431861451 -0.0293118094825 -0.000325169616296)
(0.751068309497 -0.0180731489969 -0.00505211386516)
(0.772444170113 -0.0101492785193 -0.00629364513609)
(0.79431851882 -0.00450783989699 -0.00283828569773)
(0.787032911869 -0.00721712251539 -0.00141970812557)
(0.737151300385 0.00105380508978 0.0219096786904)
(0.741085535519 -0.0109354547285 0.0227879198585)
(0.790347754097 -0.0251789705207 0.00259349008929)
(0.788792529108 -0.0262507368536 -0.000992562105857)
(0.791169008684 -0.0224214112373 -0.00260067926252)
(0.793486048769 -0.0145097537416 -0.00540832792636)
(0.801579901801 -0.0074157922193 -0.00253138670361)
(0.794991276262 -0.0158557611398 -0.00102488905632)
(0.819244005239 -0.000125807935457 -0.000458778753548)
(0.818037061113 -0.00839456436224 -0.00106160515765)
(0.812543170773 -0.0147492163169 -0.00261166342256)
(0.805283997287 -0.0145424487761 -0.00447192185725)
(0.801839798465 -0.0124709075228 -0.00536893985973)
(0.801563538991 -0.00896714416175 -0.00571711188296)
(0.8043335278 -0.00618134823763 -0.00236737507192)
(0.800447751326 -0.0168590917119 -0.000481592457559)
(0.8087141111 0.00699683910023 -0.000886848122853)
(0.812840303711 0.000800204140197 -0.000775329313194)
(0.812325538255 -0.00468736207446 -0.00185802972681)