/*--------------------------------*- C++ -*----------------------------------*\
| =========                 |                                                 |
| \\      /  F ield         | OpenFOAM: The Open Source CFD Toolbox           |
|  \\    /   O peration     | Version:  v1906                                 |
|   \\  /    A nd           | Web:      www.OpenFOAM.com                      |
|    \\/     M anipulation  |                                                 |
\*---------------------------------------------------------------------------*/
FoamFile
{
    version     2.0;
    format      ascii;
    class       volScalarField;
    location    "0.5";
    object      alpha.water;
}
// * * * * * * * * * * * * * * * * * * * * * * * * * * * * * * * * * * * * * //

dimensions      [0 0 0 0 0 0 0];


internalField   nonuniform List<scalar> 
28582
(
1.00000004741
1.00000024953
1.00000030886
1.00000043674
1.00000010631
1.0000001787
0.999999907164
0.999999968171
0.00288581603055
0.00403386065774
9.58468097708e-11
1.00000025916
0.988737903564
0.986603940066
1.00000045782
1.00000010924
0.980612308737
0.999998516587
1
1.00000003509
1.00000099891
1.00000094632
1.00000012599
1.00000078306
1.00000072348
0.99999996886
1.00000017163
0.999999848835
1.0000000477
0.00312843652001
9.44017001023e-10
6.05229073292e-10
0.999999558031
0.999999384716
0.986920504749
0.987512445688
1.00000006998
1.00000038732
1.00000009427
0.999999969488
1.00000054074
0.98548658471
1.00000028062
0.999998332556
0.00338126923584
0.00397954540117
3.45928514218e-08
1.57020242812e-07
0.00400991587403
5.14676834987e-09
0.999996612263
0.999998906124
0.994374160859
0.995698217281
0.999997574855
0.990090265683
0.999998029758
0.999993699654
0.99999758323
0.994074931883
0.992497346492
0.999996084555
0.984141447902
0.999994097476
0.999999695824
0.999996417912
0.990088874888
0.992772732839
0.999995738833
0.984467608651
1
1
0.986696202087
0.989955433673
0.999996977158
0.991996729134
0.978672462509
1.00000089279
1.00000120275
0.99032038827
0.987340505436
0.999996482
0.99204458808
1.00000087831
0.97949500213
0.00234292419685
2.05635562169e-08
0.00320528220193
0.00353310087084
5.33931221563e-09
2.15597806586e-10
0.00282874362575
2.67319586602e-07
1.64053596888e-08
0.00210129977794
1.3502765164e-07
0.0030076325317
6.85247585573e-08
0.999998384587
0.999997904769
0.991967373717
0.995308162009
0.999997837194
0.999997059452
0.99086313732
0.999995266894
0.999998853409
0.992059696583
0.993410617477
0.999995995272
0.999998884198
0.986730079494
0.996594950684
0.99164747241
1
0.999999540315
0.994154126703
1.00000359716
0.988883662744
0.999996753756
0.981690012831
0.99303343136
1
0.991173143317
1
0.987261734573
0.999996089832
0.999996556699
0.992245943055
0.991609881511
0.999993385715
0.999995102656
0.982593466109
0.999995953871
0.999997946241
0.993585046693
0.983821330965
0.992540171438
0.999997782451
0.989031015545
0.993788471474
0.988952745516
0.999993682288
0.99999517123
0.992806801014
0.999996458529
0.985233090843
1.00000011916
0.999999409299
0.00295642597344
6.43887244143e-10
0.99999989728
0.987523266241
0.999998976647
0.99999936584
0.978977931509
0.985233170462
0.983368237557
0.999999238558
0.999999578607
0.979123765644
0.980096875395
0.00305924660551
0.00265995879861
0.00283665042732
2.74487506049e-09
1.84771605862e-07
1.53465251984e-09
0.00310997888411
0.00298865840877
0.999998905958
0.999999825548
0.993685587114
0.994313082823
0.9999960705
0.987280032005
0.999991166174
0.999997490667
0.999991925145
0.989214385392
0.99178523246
0.999995111185
0.999991090247
0.982884014241
0.999991862745
0.999987982799
0.992086733167
0.992818159837
1.00000269813
0.985004865483
0.999991152149
0.999997364583
0.999985501553
0.989608318591
0.992006880522
0.999999334701
0.979984558786
0.999992615555
0.99999805681
0.999989898811
0.989127634031
0.98960995768
0.999997928641
0.981474028818
0.999993305368
0.999996099963
0.99998093313
0.987709720794
0.988933503383
0.999999994501
0.977257339293
0.999990594272
1.00000020742
0.999999826961
0.999999992894
0.999999916064
0.00549795905918
0.00646114750861
0.00314312219489
0.00370058098029
0.0026973423075
1.26730069194e-09
1.45615043874e-11
1.6390889517e-09
2.00790738675e-09
2.27510924856e-09
1.39586656731e-09
1.00000055008
1.00000036334
0.996330280483
0.995830607713
1.00000016818
0.996881411468
1.00000014607
1.00000014806
0.9948209334
0.996881995893
1.00000010908
0.999999750295
0.999999817331
0.996605305566
0.997561341685
0.998270224416
0.999507195507
1.00000012192
1.00000011051
0.998265939218
0.998864141815
0.999577141382
0.998352609615
0.999999966625
0.999999803291
0.996878125769
0.998136796413
0.997655569927
1.00000000477
1.00000005864
0.99999994646
0.997723669737
0.995525587935
0.996400241508
0.994703974065
0.995696875051
0.99332855791
0.00562785972126
0.00504195760331
0.00630920237751
1.43825117661e-06
2.25553345736e-08
3.95979856494e-09
1.00733677502e-09
3.78848349023e-10
9.83430272391e-10
7.11787144845e-09
1.41393841134e-08
0.00526945422083
0.00392029614321
0.00654561695837
0.0039504987984
0.00418594275777
5.82427451111e-07
6.42554672101e-08
7.54963397132e-07
1.27795479007e-07
0.00605228179592
0.00464185781084
0.0043903757598
1.87762960986e-08
2.51891919951e-07
8.99922721236e-07
1.65507361686e-08
0.00334639494702
0.00201354424274
3.54297973137e-07
5.75332553538e-07
2.20834147442e-09
0.0037159197038
0.00277456738669
0.00285125275885
9.75185070103e-09
4.65878343496e-07
3.6146591896e-07
6.53483411454e-09
1.00000007254
0.999998868922
0.99555066413
0.997858236669
0.999999961326
0.996317047471
1.00000030521
0.999999085437
0.999998761489
0.996809709416
0.995493745318
1.00000113931
0.99999933525
0.995257615515
1.00000005025
1.00000086776
0.997258061622
0.997398853554
0.999998706047
1.00000268565
0.997907914045
0.999999239796
0.999999795366
0.994277329368
0.996957910855
0.999999787612
0.999999916478
0.99550125019
0.99999989412
0.999999722545
0.997048084094
0.996360949435
0.999998978341
0.999999565878
0.994673244066
1.00000159915
0.999999452163
0.997086032439
0.997440119746
1.00000120745
1.00000098526
0.998116795935
1.00000161016
1.0000027153
0.997123539966
0.999286490963
1.000003139
1.00000265694
0.998987595302
1.00000118508
0.999998931469
0.997992499763
0.999360684412
1.00000196361
0.999999948869
0.998519504349
1.00000157097
1.00000124264
0.998853202038
0.999448051725
1.00000154862
1.00000067942
0.998939828045
1.00000168927
1.00000151531
0.998354594535
0.999410780463
1.00000120358
1.00000304843
0.99969462042
0.999999683118
1.00000216469
0.998482190767
0.999856212461
1.00000256192
0.99982501832
1.00000216352
1.00000087989
1.00000128881
0.998736034173
0.999421371207
1.00000076226
1.00000084425
0.998856961393
1.00000232908
1.00000214327
0.998330022882
0.999006433412
1.00000166333
0.998810099005
1.00000383087
0.999999623855
1.00000101899
0.998091128156
0.998891489737
1.00000085862
0.999999147447
0.99898695795
0.999999922253
0.999999598138
0.998230351505
0.998840834676
0.999999071234
0.999999623282
0.999000596303
0.99999858399
1.00000022848
0.99794384542
0.999065585986
0.999999995923
1.00000008679
0.99825204155
0.999999982045
0.999999642304
0.996936476207
0.998330009778
0.999999126852
0.999998606541
0.997150854081
0.999999795671
1.00000128179
0.995571787484
0.998112391591
1.00000001794
0.996232086423
1.00000162089
0.999999280225
1.00000084919
0.99672039185
0.997535756091
0.999998542929
0.999999693339
0.995603763776
0.999999267168
1.00000186476
0.996101218954
0.9973559752
1.00000047934
0.993682791021
1.00000120931
0.999999524653
0.999998109425
0.99622240769
0.997902606831
0.999997747426
0.999997674613
0.994502790401
0.999999014618
0.995324241975
0.999999573764
1.00000039002
1.00000037285
1.00000026939
1.00000091621
1.00000081287
1.00000069639
1.00000016961
1.00000020011
1.0000001613
1.00000061377
1.00000043919
1.00000018398
0.99999642362
0.99999904903
0.999999990569
1.00000038344
1.00000049047
1.0000006503
1.0000006944
1.00000066023
0.999994381993
0.999997489107
0.999999710088
1.00000007416
1.00000017534
1.00000022079
1.00000022113
1.00000010474
0.999999897134
0.999999884937
0.999999937201
1.00000001878
1.00000010294
1.00000013002
1.00000012614
1.00000006352
0.999999979106
0.999999959379
1.00000002838
1.00000009225
1.00000002574
1.00000010408
1.00000008911
1.000000044
1.00000030483
1.00000023416
1.00000015808
1.00000002159
0.999997557818
0.99999894792
0.999999741191
1.00000015999
1.00000030625
1.00000043147
1.00000028242
1.00000022934
0.999996134298
0.999998731049
0.999999635746
1.00000000498
1.00000010584
1.00000010052
1.00000012649
1.00000003679
0.999999761187
0.999999866696
0.999999902273
1
1.00000007369
1.00000008859
1.00000006382
1.00000003363
0.999999895607
0.999999874607
0.999999999599
1.00000003962
1.00000010025
1.0000001129
1.00000008909
1.00000012055
1.00000011522
1.00000008776
1.00000006503
1.00000015257
0.999998405187
0.999999540109
0.999999483195
0.999999465959
0.999999758357
0.999999755308
0.999999787077
1.00000012258
0.999998729668
0.999998653254
0.99999941829
0.999999873401
1.00000002501
1.00000005403
0.999999933824
0.99999999602
0.999999835053
0.999999954521
0.999999961348
1.0000000852
1.00000013255
1.0000001217
1.000000123
1.00000025282
0.999999999521
0.999999973041
1.00000004706
1.00000011685
1.00000013904
1.00000016094
1.00000019008
1.00000028711
1.00000044609
1.0000000476
1.00000014842
1.0000001586
1.00000021045
1.0000002028
1.0000002968
1.00000045199
1.00000006205
1.0000000673
1.00000014884
0.999999879685
0.999999633973
0.999999548652
0.999997591832
0.999999104212
0.999999448495
0.999998797406
0.999999621634
1.00000080429
1.00000058793
1.00000069486
0.999999564245
0.99999990185
0.999999825566
0.999999841486
1.00000004584
1.00000104652
1.00000010527
1.0000002244
1.0000001705
1.00000007461
1.00000009545
1.00000004592
1.00000002418
1.00000007905
1.00000026684
1.00000050806
1.00000008951
1.00000018082
1.00000028604
1.00000023774
1.0000001752
1.00000014315
1.00000012832
1.00000031084
1.00000076155
0.999999612304
1.00000019251
1.00000025645
1.00000025799
1.00000017896
1.00000015824
1.00000045533
0.999999180394
0.999999443706
0.999999762919
0.00189258908456
0.00258719298573
0.0025801569625
0.00259315544045
0.00312899043014
0.00342535706247
0.00383078849886
0.00466544404763
0.00498751489554
0.00301322334572
0.00196772507081
0.00226158355095
0.00240903315915
0.00305633373208
0.00364098607977
0.00368834516297
0.00365961720991
0.00465869536716
0.00330375843357
0.00322397680234
0.00330334953835
0.00335245419465
0.00342259556376
0.00363438621043
0.00393266956943
0.0041962696392
0.00452127604136
0.00598318150498
0.00351718883106
0.00354572311175
0.00355896653535
0.00365349135749
0.00375474523455
0.00398791157589
0.00426512247656
0.00479132461418
0.00649881702235
0.00344218416901
0.00359337158116
0.00360632551012
0.00381725359815
0.00395272882461
0.0043489721505
0.00603631073814
0.00301186985145
0.00331031960896
0.00465989944938
2.16467630804e-09
8.28087977452e-10
4.33212887774e-10
3.26949540219e-10
4.0650820919e-10
5.25827849085e-10
3.20183095557e-10
9.97247805527e-10
1.15959831858e-09
1.82943973114e-08
2.81913832345e-09
1.24536891864e-09
6.08559729361e-10
3.81086987083e-10
2.45006382583e-10
3.90545208252e-10
7.44048374501e-10
4.18497107907e-10
1.24451348793e-09
2.27181478437e-08
1.15239351086e-09
1.61901962775e-09
9.59260281881e-10
8.62181020587e-10
9.46832341459e-10
9.62414316162e-10
9.07022955237e-10
7.2133096553e-10
1.17476465718e-09
3.89129804345e-08
1.0501687382e-09
5.27825874181e-10
1.10644250471e-09
1.14583520893e-09
9.70646004468e-10
8.73833060006e-10
7.42711647756e-10
1.35862056285e-09
4.45806377446e-08
6.09214388478e-10
4.66918610607e-10
6.61927532328e-10
7.79611630209e-10
8.00809713716e-10
1.14022667085e-09
3.04762731426e-08
7.76865829781e-10
1.17423211982e-09
2.12821372231e-08
0.999998296701
0.999994487135
0.999994685607
0.999995535066
0.999997990043
0.999995040221
0.999996472093
0.999999143572
0.999996098395
0.999998395581
0.999997632204
0.999998624185
0.999997373028
0.999999058086
0.999995095369
0.999997346028
0.999998581615
0.999994302483
0.999995428312
0.999997322806
0.999998466293
0.999998932164
0.999998793307
0.999999339093
0.99999726562
0.999998927014
0.999999169687
0.999999598039
0.999998337901
0.99999597213
0.999997933354
0.999997241872
0.999999034461
0.999997177022
0.999998927993
0.999999254187
0.99999805894
0.999998665087
0.999998851241
0.999998881871
0.999999108917
0.999998817606
0.999997656312
0.999997534444
0.999998836831
0.999996985198
0.999998485184
0.999998387455
0.999998945036
0.999999270388
0.999999142297
0.999999174242
0.999998654046
0.999998830046
0.999999412799
0.999999310576
0.999999118137
0.999998147393
0.999998741029
0.99999861241
0.999999118731
0.999998989637
0.999999536176
0.999999381285
0.999998792124
0.999998294072
0.999999761708
0.999999088469
0.999999507283
0.999998989493
0.999998513446
0.999999031782
0.999999531896
0.999998670899
0.999999229822
0.999999196504
0.999999946831
0.999998421046
0.999999538529
0.999999632801
0.999999280333
0.999998621645
0.999999949651
1.00000027474
0.999999879364
0.999998683838
0.976710557279
0.980834613815
0.999999975018
0.999999229069
0.999999043449
0.97426200397
0.978367526676
0.977796539733
0.981492673945
0.999999783958
0.999999531767
0.999999178643
0.974452303119
0.982840392109
0.979641757108
0.98576784699
0.999998981521
0.999998494385
0.999996456411
0.978406085023
0.985655721578
0.983310870241
0.985043737146
0.999997710037
0.999998470445
0.999997655826
0.98191296465
0.984818634807
0.980789978147
0.982361472592
0.999999426964
0.999999107566
0.999997528171
0.979577222159
0.981029216284
0.976560695809
0.980417394571
0.999995797826
0.999999124229
0.999998415859
0.975468332156
0.976563714876
0.973838262903
0.978451399521
0.999998833681
0.999996434714
0.999997528336
0.97035528844
0.970823785068
0.973508659584
0.972583548502
1.00000006695
0.999998302754
0.999997851202
0.964926686609
0.955631206635
0.969543172917
0.95985213716
1.00000085847
0.999999993253
0.996057193908
0.98691350781
0.996390755711
0.98969125438
1.00000096082
1.00000142314
0.999999912347
0.976926699918
0.982131331385
0.981430219694
0.983295943571
1.00000072056
1.00000021444
0.999998337187
0.978458855091
0.982563567346
0.977556989389
0.98355505926
1.00000047358
1.00000006059
0.999998565395
0.979762171499
0.985811361771
0.978574718821
0.98478811875
0.999999678139
0.999999842571
0.999998211427
0.982498985808
0.985798843085
0.979697259865
0.984052398827
1.00000020518
1.00000010198
0.999998413103
0.980289214945
0.982430595365
0.978264330171
0.982554628525
1.00000030984
1.00000064851
0.999998339818
0.975790373853
0.98019692411
0.975771997933
0.980046644513
1.00000050863
1.0000003798
0.999997932466
0.973020361627
0.977545675225
0.972604745943
0.976528276329
1.0000001137
0.999999937369
0.999997089139
0.972609466564
0.972475910106
0.968661665798
0.970270383396
1.00000135034
1.00000004838
0.99999604213
0.969157000037
0.959034171345
0.963301887398
0.953997231084
1.00000106532
1.00000022589
0.999999908431
0.993248722366
0.989779611895
0.991243443635
0.990557412769
1.00000125196
1.000001534
0.999999304735
0.982838402311
0.984178920343
0.985067549729
0.986752660757
1.0000015777
1.00000152875
0.99999921453
0.978155106013
0.984083283613
0.981051355723
0.985621493867
1.00000124552
1.00000141273
0.999999205591
0.978691530022
0.984952362252
0.980055377427
0.985287818769
1.00000114899
1.00000120918
0.999999147698
0.979429213325
0.984301929464
0.979707286135
0.984772173845
1.00000099244
1.00000109672
0.999998865721
0.978066809899
0.982790541075
0.978809067237
0.982976405073
1.0000010128
1.00000095771
0.999998487619
0.975701314281
0.980094648156
0.976252655216
0.98014332655
1.00000123363
1.00000098191
0.999998132652
0.972217595903
0.976155858623
0.97249801814
0.975884018969
1.00000208434
1.00000154394
0.999997939978
0.967815589493
0.969485866722
0.967221836336
0.968935279464
0.999999488359
1.00000322427
0.999998415258
0.961983628407
0.95293840182
0.960490512071
0.952041212524
0.990131488677
0.990878537366
1.00000122861
0.999999630984
0.985938399358
0.987455119734
0.988380681586
1.00000149134
1.00000042005
0.999999045784
0.982277497306
0.986315621104
0.983751567275
0.987278278368
1.0000014646
1.00000059271
0.999999476056
0.980639131502
0.985504637576
0.98276478544
0.986804253643
1.00000129814
1.00000153726
0.999999174542
0.979818055185
0.985128297439
0.981389318992
0.985267443295
1.00000117725
1.00000130381
0.999999031086
0.978989001019
0.983290488182
0.979638234368
0.983563344714
1.00000117459
1.00000145399
0.999998765441
0.976373278675
0.980366259002
0.976998029808
0.980729414699
1.00000158442
1.00000125153
0.999998275019
0.972494292155
0.975861713278
0.973384202091
0.976459348913
1.0000032594
1.00000168993
0.999997955287
0.967214958592
0.968654942497
0.968228575564
0.969303608957
1.00000041832
1.00000356055
0.999998623777
0.960219481616
0.951495388993
0.96118442922
0.952316069514
1.00000073667
0.999998976014
0.982899969177
0.987413047785
0.987019257956
1.00000159343
1.00000044302
0.9999998715
0.981917972542
0.98536648656
0.981717090063
0.986794069247
1.00000155054
1.00000031459
0.999997894938
0.979564502724
0.983530700499
0.982307563168
0.98495184881
1.0000016004
0.999999920083
0.999999270876
0.976643944596
0.980953062589
0.978984814921
0.982074487097
1.00000146575
1.00000056526
0.999998208156
0.973263154255
0.976639734645
0.976086374492
0.978169119768
1.0000027281
1.00000052075
0.999997715507
0.968530106761
0.969224501206
0.97246526832
0.971329335008
0.99999989306
1.00000192383
0.999998081127
0.961254521812
0.951606340634
0.965377031639
0.955291548014
0.999998449026
0.982886843131
0.999998447622
0.977130272689
0.978804937787
1.00000027586
0.974165370865
0.971841044263
0.999998229467
0.967018576746
0.95568027912
2.35319865028e-08
5.90836048112e-07
8.68735998224e-08
7.18823330543e-07
0.00162802647331
0.00154233902006
4.82317945417e-08
1.27467839745e-07
2.74918558309e-07
2.32835642229e-08
0.00245349361557
0.00158200877498
0.00185356659106
5.05962469894e-08
5.57801888652e-08
8.10328943215e-08
7.75333302775e-08
0.00258730797584
0.00217472303988
0.00216940356409
1.24150841821e-09
6.95689917653e-10
1.10940909926e-07
1.09309793771e-07
0.00270183496893
0.00230780440731
0.00255694033813
3.40723848997e-09
1.69383529813e-07
1.38588016713e-07
1.16996322375e-09
0.00275950101955
0.0030812477101
0.00324633439458
1.72640158017e-07
1.18640913901e-07
1.80322573467e-07
2.30431763169e-09
0.00332583752917
0.00386177123584
0.00377170029659
1.0007814381e-09
2.03345608798e-07
8.61359908324e-08
2.08179958443e-09
0.00365168054743
0.00384208653736
0.00369507335761
6.38253465771e-08
2.28535079231e-07
3.01807599386e-07
1.66438900114e-07
0.0040904639286
0.00365731442995
0.00369349747886
2.02686332468e-07
3.06406041744e-07
2.57425263752e-07
3.47281643393e-07
0.00718038913232
0.00444506566834
0.00712937626944
6.4114528754e-07
2.80590650683e-06
6.83739370771e-07
3.36385154137e-06
0.00419710677892
0.00428594883609
0.00334547935151
5.42465674665e-08
5.09772518929e-07
9.83882738482e-07
3.41805528527e-09
0.00223305517779
0.00348441337852
0.00288609692834
1.65909384231e-07
1.69885030859e-07
3.78953773573e-07
4.60683183718e-09
0.00206144977751
0.0030210693501
0.00285136735351
5.27601269275e-08
1.10278683593e-07
1.965130682e-07
3.80855004992e-09
0.00221775810033
0.00311253347101
0.00303199325907
7.03913091778e-08
1.30222127265e-07
8.25084642252e-08
2.43532955959e-09
0.00273180136991
0.00329287909751
0.00331799746055
7.1840849849e-08
1.65390412727e-07
6.0982473426e-08
2.21815251897e-09
0.00374029016413
0.00387767027427
0.00374009472309
3.09782171357e-09
1.16481877618e-07
1.80831826577e-07
2.48520045144e-09
0.0041663707133
0.00428434017909
0.00409770929229
2.68270882692e-09
2.05208889438e-07
2.12472030976e-07
3.16971984163e-09
0.00380172411482
0.00436750851224
0.00420006294376
3.10258445719e-09
2.31383704234e-07
1.5800587768e-07
4.63607123299e-09
0.0037216896142
0.00431502027467
0.004569234831
2.43025331427e-07
3.70517607861e-07
2.65062906306e-07
1.21946530628e-07
0.00724066738222
0.00534895814218
0.00832841685392
7.18984471989e-07
3.55805504702e-06
8.93342444511e-07
3.98853135647e-06
0.0035727121783
0.00334963538793
0.00337107373857
2.20419984284e-09
5.46106061552e-07
7.06372373366e-10
7.49349294226e-09
0.00371341108952
0.00348914301033
0.00318624804993
7.23272223348e-09
3.10686987983e-07
4.9933299593e-07
6.09365394206e-09
0.00368853320566
0.00379214211764
0.00348897044867
6.83527102044e-09
1.8668927797e-07
3.26951214752e-07
4.4221028126e-09
0.00373107270204
0.00386703345419
0.00356433138724
3.55853699739e-09
2.10560247648e-07
2.96494806815e-07
3.37890876105e-09
0.003892644831
0.00398905775039
0.00373615607386
2.16859806964e-09
2.58216773925e-07
3.15430938008e-07
2.8845170649e-09
0.00414440261259
0.0041501810813
0.00396128611822
1.59034474498e-09
3.15056024817e-07
3.33898841036e-07
2.73418296211e-09
0.00441871980533
0.00441819964085
0.00425647696517
1.52552690327e-09
3.127820453e-07
3.36988387179e-07
2.22066738434e-09
0.00459643650527
0.00467255263999
0.00459984403403
2.3174279202e-09
2.64914610979e-07
3.04881675901e-07
5.1277686118e-09
0.00508874710847
0.00502762476933
0.00539144582167
7.22176813967e-09
4.76271211266e-07
3.49918368922e-07
1.34784170951e-07
0.00915474332598
0.0065769299973
0.00976414283977
2.38630984246e-07
5.74434262941e-06
1.35046186631e-06
6.43003538592e-06
0.00395751201086
0.0033874678757
8.47407816606e-09
4.65001688112e-07
1.79433336854e-09
0.00397882314094
0.00361024440402
0.0035294304651
6.27639872731e-09
3.58377299635e-07
4.50178959041e-09
1.94383148547e-09
0.00401005882677
0.00394114737538
0.0037007029809
3.05959907739e-09
3.54508858222e-07
2.66770928457e-07
1.8933943105e-09
0.00405442771154
0.00408331145962
0.00377429125249
1.44153792372e-09
4.42262991801e-07
3.0819389329e-07
7.56421324758e-10
0.00420285317891
0.00412598668366
0.00389867595574
1.21309827378e-09
4.18983335861e-07
2.93131816332e-07
6.87536956306e-10
0.00444387389512
0.00434201184077
0.00416570843318
1.50311601858e-09
4.15155785568e-07
2.64681807298e-07
7.70931127265e-10
0.00475273823893
0.00456569844583
0.00447289341538
2.04393049288e-09
3.91344345218e-07
2.69800309218e-07
2.89579685345e-09
0.005512884231
0.00496613346534
0.00531249442877
6.7254646539e-09
6.97660440691e-07
3.25841105454e-07
7.70729405004e-08
0.00984534119598
0.006616740513
0.00979395721401
7.5551384071e-07
7.36315789607e-06
1.31777709951e-06
6.38817643491e-06
0.0038204279487
0.00343338617894
2.35259123878e-10
3.65867538358e-07
3.76912245825e-08
3.75665905523e-10
0.00399420971047
0.00403501071882
0.00408995351637
2.91419494802e-09
3.49534331565e-07
1.51216121666e-08
7.15687625412e-08
0.00399542980076
0.0038540642472
0.00356043347157
1.8876057548e-09
2.54612800988e-07
2.72542300591e-07
5.91360768236e-10
0.00423931203326
0.00406810048904
0.00369348356033
2.74933808119e-09
3.7506945463e-07
1.09735867281e-07
2.59702949288e-09
0.00444122015631
0.00398622845453
0.00364823270848
3.78390113507e-09
3.60096990785e-07
2.174677674e-07
3.70142773377e-09
0.00511988156919
0.00409296850759
0.00436453608665
8.02577509274e-09
5.79016702397e-07
2.38019299054e-07
5.24222181573e-08
0.00942734572689
0.00571141365414
0.00860890325173
4.16270888094e-07
6.13258198917e-06
8.38662370886e-07
4.06334716256e-06
0.00351017905132
2.49807031263e-07
0.00347689416974
3.33599256343e-09
2.43136164998e-07
2.26780669678e-07
1.20994965791e-07
0.00385317151599
4.02232159064e-09
3.93935937204e-07
2.12837000107e-07
2.45841227078e-07
0.00750069411724
6.33484758811e-07
3.58932429902e-06
6.32969738741e-07
3.10081374103e-06
0.99998728342
0.999994882995
0.981278134348
0.984226744047
0.999998217107
0.975911265762
0.999999926251
0.999984287123
0.999992223311
0.984175228911
0.988209175616
0.999998707759
1.0000027631
0.977038513269
0.999993547254
0.999991832611
0.985679203886
0.983486403846
0.999989226379
0.977287864689
0.999992959635
0.999988392108
0.999992165575
0.985574350303
0.987818654219
0.999993176117
0.97508310468
0.999988900882
0.999990148007
0.999993686356
0.983303088693
0.987292639069
0.999999379047
0.999996945098
0.978997149663
0.99999112701
0.999987100965
0.988850969515
0.987147551137
1
0.999996549507
0.977446920554
0.999996949929
0.999988764714
0.98801623658
0.988289868593
0.999990938011
0.980469590482
0.999993612419
0.99999073994
0.999995473648
0.989834060103
0.989627931505
0.999995493393
0.977166865205
0.999992321807
0.999991168522
0.999991681414
0.988917136112
0.991700280395
1.00000233928
0.999997396919
0.982422045556
0.999992007318
0.999988259901
0.991449762555
0.992272693741
1
0.999996952528
0.97991860527
0.999996170356
0.999992324108
0.990015212172
0.990853608522
0.999991124785
0.983681464257
0.999995181788
0.999981220364
0.999986462423
0.991542377519
0.990796203699
0.999981827054
0.979697963693
1.00000873328
0.99998356062
0.999993568292
0.991885539247
0.993309935854
1.0000074033
0.999992544471
0.985478523674
0.999984176664
0.999999989764
0.991331084511
0.993447497442
1.00000336572
1.00001128337
0.98139964628
0.99999678219
0.999998425728
0.992025378762
0.991794333436
1.00000201559
0.985079617874
0.9999916778
0.999992543159
0.999980683062
0.992167229454
0.990956864131
0.999997389155
0.980138670605
0.99998918408
0.999993219002
0.999997218694
0.991336252164
0.991489529724
0.999994454601
0.999995966391
0.984544644809
0.99999361165
0.999997880079
0.990167790668
0.991654716848
0.999995593394
0.99999664769
0.979324423842
0.999997286239
0.99998055586
0.99024539003
0.990742577901
0.999995712195
0.981388676653
0.999990955654
0.999993552462
0.999978652467
0.989793313839
0.988817266345
1
0.975565246166
0.999989911326
0.999995279299
0.999991353348
0.990225965046
0.989020505896
0.999997071254
0.999992880058
0.981555050941
0.999993128319
0.999997646355
0.988243596779
0.989912906872
0.999994695068
0.999993928828
0.975437704522
0.999988071038
0.999978081731
0.988228146355
0.989006768889
1.00000276033
0.978936917659
0.999975936453
0.99996532963
1
0.987518107526
0.986752861142
1
0.972720870037
1.00001582185
0.999996939369
0.999988566279
0.988573936741
0.987424671559
0.9999977642
0.999992597276
0.979778765624
0.999980756867
0.999980259123
0.98677686674
0.987737027456
0.999969976067
1.00000755869
0.97390907624
0.999991128437
0.999989962079
0.985006525542
0.985602919649
0.999987395958
0.974513194437
0.999989377092
0.999981248446
0.999987266044
0.983472667013
0.983333812343
0.999988818153
0.968941100907
0.999984268716
0.999985916435
0.999992646638
0.985823814608
0.986078975485
1.00001276886
0.999996633868
0.975460023656
0.999987929507
0.99997530845
0.983528984945
0.98326966588
1
0.999993837158
0.970655085965
0.999987405187
0.999979839366
0.980186655065
0.980367331883
0.999982032452
0.966968810881
0.999986695627
0.99997485526
0.999981239391
0.976133902173
0.973183910519
0.960514868274
0.999988099438
0.999975243943
0.999982940444
0.999981229993
0.979086385666
0.981620418921
1.00000551224
0.999984629585
0.967436866751
0.99997980766
0.999970101098
0.973616229248
0.974848982151
0.999985627902
0.962630763897
1.00001017326
0.999999992912
1.00000025818
0.997265502679
0.999558258538
1.00000252943
0.995123668712
1.00000374403
0.999989010817
1
0.994618851442
0.993444548687
1.00000553376
0.999999261124
0.986658675965
0.999994491266
1.00000217139
0.99694415566
0.998432919143
1.00000270682
0.994555176596
1.00000116493
0.999995315758
1
0.992337162956
0.997690125889
1
1.00000637878
0.986916741051
0.999994910872
0.999995530964
0.986482066746
0.992776034871
1
1.0000013621
0.981834905988
0.999982259328
0.999987401415
0.987358265862
0.987613289119
0.99999721855
0.999999025801
0.9751849443
0.999985727835
0.99999976386
0.991245259961
0.991833596682
0.999998662129
1
0.983124430086
0.999995100946
0.999999847044
0.987253703629
0.992928220352
0.999996949821
0.999998919232
0.975724089322
0.999998399282
0.999988972444
0.987897695673
0.989247255665
0.999995460317
0.999998015483
0.982028165933
0.99999591907
0.999983910103
0.988177637878
0.989938077587
0.999994616231
1
0.977817854078
0.999997108843
0.999994113342
0.988986412966
0.989887424077
0.999998664674
0.99999484261
0.98276216698
0.999994431061
0.999998461507
0.988994932693
0.991783511853
0.999996519487
0.999998004185
0.977552623823
0.999998920947
0.999986631769
0.990865787062
0.990894131844
0.99999543009
0.999997823472
0.983699781417
0.999995716297
0.999987061038
0.991733593853
0.991601161532
0.999994896001
0.999999902947
0.979717828344
0.999996981099
0.999993632849
0.990611478632
0.99043544279
0.999998911494
0.999994577683
0.984058201537
0.999994497982
0.999998696382
0.990439019214
0.992463988939
0.999995877542
0.99999731288
0.979163943721
0.999997674704
0.999988511482
0.992330091234
0.992674052783
0.99999946163
0.999994126386
0.985284217392
0.999993540068
0.999996564907
0.992506503617
0.991742459512
0.999994666985
0.999996390162
0.980300776585
0.99999471253
0.999994024544
0.991929232837
0.990792410973
0.99999808526
0.999994512904
0.984995738975
0.999991553684
0.999998360467
0.990346059239
0.992250542015
0.999997402499
0.999996833003
0.979404605198
0.999997891787
0.999985059598
0.990214701478
0.992575764845
0.999987380581
0.999990900403
0.982782334808
0.999993583301
0.999993058114
0.990181177962
0.988910657646
0.999994932111
0.99999498061
0.975948098856
0.999994486026
0.999993960137
0.991447238191
0.989896610973
0.999997074106
0.999994871654
0.98351650405
0.999989620038
0.999998498575
0.988605232852
0.99155757463
0.999996207502
0.999996033222
0.976454080754
0.999998459943
0.999981645311
0.987766960631
0.990608877409
0.999986220574
0.999990557276
0.980128103343
0.999992550228
0.999991453581
0.988399178782
0.986757481069
0.999994326449
0.999994066094
0.972099944157
0.999993530374
0.999992537385
0.990047753568
0.988469880962
0.999995901024
0.999993853794
0.981219060614
0.999987651798
0.99999807469
0.986960027087
0.990088359427
0.999995070687
0.999994901584
0.973197454442
0.999996917744
0.999977435185
0.986152329345
0.988756854494
0.999984084173
0.99998843341
0.977665141365
0.999991478006
0.999992851248
0.98637787188
0.985068358684
0.999985935305