/*--------------------------------*- C++ -*----------------------------------*\
| =========                 |                                                 |
| \\      /  F ield         | OpenFOAM: The Open Source CFD Toolbox           |
|  \\    /   O peration     | Version:  v1906                                 |
|   \\  /    A nd           | Web:      www.OpenFOAM.com                      |
|    \\/     M anipulation  |                                                 |
\*---------------------------------------------------------------------------*/
FoamFile
{
    version     2.0;
    format      ascii;
    class       surfaceScalarField;
    location    "0.5";
    object      alphaPhi0.water;
}
// * * * * * * * * * * * * * * * * * * * * * * * * * * * * * * * * * * * * * //

dimensions      [0 3 -1 0 0 0 0];
oriented        oriented;


internalField   nonuniform List<scalar> 
92311
(
0.200278735726
-9.20781694773e-05
0.000137752407103
-0.200231992684
-9.24994928088e-05
-0.000112659769488
0.20035824647
0.000111064309184
-7.8237375427e-05
0.200257936616
-0.000191053766294
0.00013059414661
-0.200204038801
-8.59119202509e-05
-0.000221488334792
0.200335327571
0.000103547925275
-7.2689421197e-05
0.200227817692
-0.000107497523543
-0.000105764987531
0.000118465293528
-0.200178945757
-6.93116979674e-05
-3.60841882148e-05
-3.99347648734e-05
-0.000105022516437
-9.9942296335e-05
-5.3127566159e-05
0.200279385533
8.92822095501e-05
-5.68224834771e-05
-4.77597980679e-05
0.0500399163675
-3.59552694699e-05
-2.50218774827e-05
-2.58110420524e-05
-3.6707971493e-05
2.44537151745e-05
-0.0500396083818
-8.80348816614e-06
-0.0500531832668
0.0500467049156
-1.37452970813e-05
-3.82598519556e-05
-1.34909026596e-05
-3.78386200198e-05
1.57889478003e-05
-1.10465209817e-05
1.77172174426e-06
8.2679562773e-05
-5.37437970856e-05
-0.000156062137339
1.29311463032e-06
-9.1405334349e-06
-6.5218428516e-05
2.09995179906e-08
-5.74580712215e-06
0.000167112775898
7.05984168614e-06
-8.02846962629e-12
-0.000170329084915
9.0417467861e-07
-1.66189096705e-05
-0.000221824948485
4.08727638436e-06
-5.3973451242e-06
-3.5341332129e-12
5.48179120674e-11
-1.67059559918e-10
5.53666853927e-11
6.58474711112e-15
7.14100808393e-15
-7.16488752683e-13
1.19758648516e-10
-4.12100250542e-05
-2.24398264216e-05
-4.7214702237e-05
-1.66149108998e-05
1.91780452873e-05
-1.08649965594e-05
5.7981103456e-05
0.0124336997012
6.02970286188e-05
-3.11927185764e-06
-0.0123668164912
0.0122729884803
-1.39756245656e-06
2.96096346259e-05
-0.0123187782391
2.11513705074e-05
-8.00470123497e-07
-1.02863737588e-05
-4.70729243058e-05
0.0500474000501
-1.34833421386e-05
-3.83656425182e-05
-3.45677109609e-06
1.19256274431e-05
-3.48660073148e-05
0.050051416362
1.93192001191e-06
-2.82009516595e-05
1.08332602583e-05
-0.0500540924677
-1.04928144946e-05
-3.541923377e-06
5.21347572277e-05
0.0123560268766
7.11419490233e-05
-1.47635580202e-06
-3.42600418974e-06
0.0125107937501
4.26117909348e-06
-3.96221566481e-05
-0.0125190559941
0.0125100308039
4.43262758396e-06
-3.43540318761e-05
-0.0125184014111
-0.000106902864581
0.200255561113
0.000307512320414
-0.000155680358013
-0.200300552837
0.200468715522
-0.000135518030524
8.56001494516e-05
-6.16269726812e-05
-0.000156157733259
0.200607253775
6.3347513971e-05
-4.67502194529e-05
-0.000150795325512
0.200267811518
0.000293981530515
-0.000165912340434
-0.200352217729
0.20044889544
-0.000275742929553
8.01183972292e-05
-5.43463122425e-05
-0.000319452593066
0.200592705442
5.88215688553e-05
-4.0129442394e-05
-0.000118992826756
-0.000115786755302
-6.02647869871e-06
0.000294329548857
0.200203746807
-0.000148482202048
-0.200260839004
1.16287030128e-06
-0.000119855309946
-0.000116480501034
-9.56896600936e-05
-0.000107151888424
0.200410362864
7.20494160405e-05
-3.9859779375e-05
0.0500253976043
-2.26990221258e-05
-3.19993624386e-05
-3.16765849201e-05
-2.333611844e-05
6.16585633634e-05
-0.0500344697129
-6.18975810182e-05
0.0500616260123
-1.03467099084e-05
-2.75054439413e-05
-4.04791788551e-05
-2.46730547863e-05
-4.81135451443e-05
1.7000213688e-05
1.96273438232e-05
3.84860590967e-09
0.000112450335138
3.3289043647e-06
-0.000168247518371
-3.73102545136e-05
9.22354785061e-07
-1.67595499609e-05
4.35672033026e-12
5.89390158802e-11
1.13870453688e-12
2.91606652218e-12
1.5833390782e-13
-2.32819456414e-12
1.65545271365e-12
-1.66946139237e-09
-8.21305245105e-10
-2.76064171718e-13
-2.93052844972e-10
-3.14835519723e-11
-4.61652101006e-14
3.63138409282e-12
-1.92893923378e-12
-5.81297925095e-05
-3.87072305086e-05
-1.78290481987e-05
-6.35952761571e-06
-4.58242703775e-05
0.0500253309018
5.11217324904e-05
-1.70056738237e-06
-7.77937723472e-06
-1.85688246639e-05
-1.83274346947e-05
0.0500496125594
-2.18838284519e-05
-0.0500454879752
-1.84448873121e-06
3.35902413515e-05
0.0124036920991
5.11262756364e-05
-1.64543205939e-07
-0.0123570808362
-9.17134983392e-07
1.15686248874e-05
-0.0123206930578
2.36977228904e-05
-1.01683723587e-05
0.0123009782556
-4.54912401422e-06
0.0125001973423
6.78823401309e-06
4.40269699554e-06
-0.0125085433516
-1.28457808788e-05
-4.44880268676e-05
-2.71266265178e-05
-2.42292855668e-05
-5.17210662999e-05
0.0500884745782
1.70272543349e-05
0.0500642029432
-2.12765017742e-05
-3.79137507625e-05
-2.87323905484e-05
-2.27392778377e-05
-8.16504743532e-06
-3.02901983336e-05
-2.92588563902e-05
-4.07644825048e-05
-4.47081158641e-05
0.0500944777131
-5.3486802838e-06
-3.05437175716e-06
-2.04861846476e-06
-1.00975205157e-05
0.0124985468819
-1.63680453661e-06
4.85249071849e-05
-0.0123095319643
4.9900211875e-05
0.0122647437497
-7.98917308497e-06
-2.99569456643e-06
-6.5742987188e-06
0.012495298857
-0.012514841999
-8.70263654277e-06
0.0125004769773
-9.43433524271e-06
2.19784259072e-06
0.000117216290034
-0.000215561013003
-3.77056714693e-05
2.96283775104e-06
1.10181002292e-06
-3.30320420019e-06
-5.40543215925e-12
-6.44647801764e-10
-3.41487056656e-08
6.80702335006e-07
-0.000201904667545
4.05487483765e-06
0.000187411826803
1.52628689277e-05
-0.00018335265479
-7.11735598671e-11
-3.32194552101e-10
9.38976336404e-13
-1.03513936207e-11
-1.01526432875e-11
-2.38606658661e-11
-5.57746931609e-11
-1.52746474819e-10
-4.86245707377e-05
-0.000199585056411
1.54397797207e-06
1.15103480269e-06
1.08968919295e-07
-6.12875235746e-12
-1.53850486431e-12
-1.14300586098e-13
3.71868009761e-06
0.0125232252166
1.97333712819e-06
-0.0125068397729
-0.0124962991801
-4.60081405331e-05
8.29526536048e-06
0.0125113716966
-2.38133071349e-06
-3.78073994806e-05
2.19080799174e-05
0.0124604823703
-3.87327792441e-06
8.41654222899e-06
0.0123632592698
-0.0124606457333
-7.959194173e-06
-0.0125082531046
-1.70017023059e-06
0.012325276233
-4.53234390046e-06
0.0125148909344
1.82358833218e-06
0.0125288971479
-6.87836843118e-05
1.39478604235e-05
-3.81047150418e-06
-4.273706269e-06
-0.0125007314934
0.0125127377368
-5.17138942988e-07
-8.1040159232e-05
-1.07352871408e-05
-5.25696543222e-06
3.58991339147e-05
-0.0123939350878
0.0124419899076
-6.02046450329e-06
0.0125180367062
-4.64390776755e-06
-5.44789370218e-06
8.19832825559e-07
-0.0125037773742
-1.66508480653e-05
6.59411164828e-07
0.0125100201565
-3.98379902551e-06
4.07067641498e-06
0.0125258481517
-3.25041901978e-06
-2.82587757461e-05
2.03427739873e-05
0.0124390895192
-2.61206206274e-07
-8.88920875345e-06
0.01231384687
-5.78428891605e-06
-3.99335370555e-06
0.0122597101874
-4.60123037041e-06
0.0125133890075
-4.37729069224e-06
-1.81774535438e-05
-0.0124954208267
0.0125056103661
-1.23424887713e-06
1.18846414296e-05
-0.0123186849588
0.0122994238532
-1.03142949451e-06
-0.0123379176623
-2.9801616651e-06
0.0124567035478
-5.0594869495e-05
7.49273124923e-06
-4.26704431088e-06
-7.7724936855e-05
-2.42594550186e-05
-1.37102472476e-06
-5.50168237082e-06
-2.22725125984e-06
1.32609840929e-06
-0.0125009303435
0.012505572051
3.44447912654e-07
-5.58255103359e-06
-0.0123463817652
0.0124704350977
-0.0123382368789
0.0123311942189
7.27166825959e-06
6.12074817374e-06
-4.65475519962e-05
-0.0125103254625
-3.33429958888e-05
-7.40752663483e-05
-0.012441528666
6.78764265526e-06
-0.0125169686439
-3.18574488083e-07
-0.0122695207459
8.163518842e-09
-2.96846672626e-05
-0.000131294726882
7.58215640321e-07
-3.64384066391e-05
1.74347382011e-06
6.86449950936e-05
-6.32721067874e-05
1.00202378987e-05
3.78182972732e-11
2.4214824896e-11
-8.86691105749e-11
-6.19673473193e-10
0.000122093084296
-1.20088146858e-10
-3.8505615622e-05
-9.63754162821e-05
6.99266708444e-07
-1.6477180507e-05
3.72983520829e-05
-0.000145228373786
-3.53004943146e-13
-0.000217212156045
-2.53539153819e-05
1.85417623882e-06
0.000120503818397
-1.26535260844e-05
7.20436465709e-13
5.508883921e-12
-6.88928414864e-11
-6.10303261961e-10
3.01953513234e-13
1.23035012371e-13
6.60503920918e-08
8.26060725448e-05
-0.000169775698597
2.39076885614e-06
-3.72147660009e-05
8.0460285198e-07
1.42844578943e-05
3.10022399946e-10
5.59354645574e-11
-2.91344738992e-10
-8.3508183416e-11
2.12894700736e-11
3.08045481228e-08
-2.73638981043e-05
-0.000181504041924
8.08712764281e-07
-5.43385507225e-05
2.56361682965e-06
6.25067010356e-05
9.10290834264e-06
2.53023274851e-10
2.47299153103e-10
-8.43041535597e-11
1.54478818542e-08
-0.000224752873239
-5.25284957327e-05
2.93642022639e-06
9.18776192925e-05
-2.19045082965e-05
-2.21370328933e-13
7.86300986197e-11
2.51365754526e-05
-0.012499135803
-3.13888630808e-05
0.012507237201
-2.45393690643e-05
0.0125169876887
-1.6781289587e-05
7.45857674761e-06
-0.0125060281395
4.45950459143e-06
-1.67325250484e-05
0.0124386504986
-5.38586097786e-06
1.04576188898e-05
0.012388559869
-0.0124548397964
1.27512657594e-05
0.0125097083157
5.22048508558e-06
-0.0125061283871
-2.26135804909e-05
0.0123573461893
9.29451818472e-06
2.84518384638e-05
0.0125192822233
-5.46351873276e-05
-2.45200328614e-05
-0.0124931297048
-1.63500173267e-05
2.46108415712e-06
0.012500775117
-3.54192539813e-05
-5.90148288271e-05
-1.73582780478e-05
3.25271636099e-05
-0.0124129552531
4.58722866402e-07
0.0124538613321
3.26292476313e-06
-2.23396858463e-05
0.0125119930209
-2.87289902975e-06
0.0123898129797
-6.51607268327e-05
1.24706353977e-05
-0.0124740191722
3.57448405056e-05
2.15122234713e-05
0.0123588773851
1.19613564402e-05
1.68978189111e-05
0.0125100435423
1.22144442777e-06
0.0125216332253
-5.02466043842e-05
-0.0125076711522
1.53538491309e-05
-0.0124337468658
0.0124603459647
0.0125131737109
-0.0123826116773
-6.00119059159e-05
0.0125232712157
-1.30859933812e-07
7.33398522227e-05
0.0123754119356
-4.01017282118e-06
0.0123467799673
6.38364381486e-06
7.17774881242e-06
-3.94475003683e-05
0.0125115690204
-5.42544173436e-06
3.29453750978e-05
-2.10915118655e-05
0.0124485538537
-7.07554229251e-06
0.0125153723721
-9.15776782591e-08
0.0123068705454
8.11832017203e-06
1.37701940137e-05
0.0125346836699
-7.44749806223e-05
-6.84178879822e-06
-0.0125010383191
-6.50171165787e-07
0.0125202982507
2.84859270841e-06
-3.01669866741e-06
-7.48181925742e-05
-1.26292654411e-05
3.84430527635e-05
-0.0123932739653
9.7257985331e-06
0.0124429856114
9.31599932715e-07
-4.93578954879e-06
0.012525733343
2.81972811589e-06
-0.0125187035799
-3.27080095685e-05
-3.17243764838e-06
1.86402854607e-06
-4.57763198602e-05
8.92824028192e-07
-5.70797737196e-05
0.0123602112877
0.0123957630408
5.43958401665e-06
-3.73347520097e-05
0.01246614327
7.37485058425e-06
-4.68272872509e-05
0.0125107780721
0.0123396313658
0.0123542340468
-8.69286525223e-05
7.33518132765e-06
5.73238286843e-05
3.09031937262e-05
0.0123353811627
6.05231525393e-06
8.35588526661e-06
0.0125177611126
2.50943040388e-06
0.0125347592298
-8.09173889291e-05
3.23508811346e-05
-0.0124252035966
0.0124604895569
0.0125258981182
-0.00013055863784
-0.000119955081686
-0.000120596377841
5.07050499693e-05
0.200562882159
-0.00012267735763
-2.90762808976e-05
-1.12474335672e-05
-2.40276106433e-05
-4.62672425267e-05
-5.20040297702e-05
-2.82428760667e-05
1.47109237144e-05
0.0501049865638
4.26563265025e-06
2.79546713625e-05
-7.27452934799e-11
-4.8289687862e-05
-0.000221547585889
1.62741157348e-06
-2.17275872139e-05
0.000108500309237
4.42917950734e-11
-4.42482155418e-10
6.63411659973e-12
2.17199042864e-12
-3.26116839074e-12
-5.1807280357e-10
-8.77549678281e-13
-6.78866013407e-06
-2.24016209661e-05
3.58755727662e-06
-2.53269704883e-05
3.06866947623e-05
4.43118939727e-05
0.0500499431728
-1.83918062618e-06
5.64026908584e-05
6.56388268388e-05
0.0124287670997
0.0501050507926
-2.15089294448e-05
-4.58920406814e-05
-1.87966018988e-05
-5.06824303107e-05
-4.93250449875e-06
0.0501262730575
-4.17843064181e-05
-2.8943819397e-05
-4.73860024033e-05
-2.83516660657e-05
1.12372492262e-05
-6.62902226923e-06
7.93872370369e-05
0.0123628684814
0.000106865465919
-2.29255140473e-06
-2.29417686525e-06
8.99993909474e-05
8.23287477299e-05
0.0124373360369
3.80242907842e-06
0.012258744204
-1.85258488087e-06
5.33853460643e-05
3.42317476773e-05
-0.0122654058061
7.47723920768e-06
0.0501432930985
-2.37118842341e-05
-5.3419837305e-05
-1.87699685315e-05
-6.08901022068e-05
0.000135545625176
1.00859742667e-05
-5.80411716135e-06
-4.93568553577e-05
-3.18785340691e-05
-5.66546464193e-05
-2.96513860748e-05
0.000130098601766
8.9551464354e-06
0.0501754624469
-3.69216808246e-06
-4.23840153656e-06
0.000101953095351
0.000102081932321
0.0123980132685
5.18291269418e-06
-2.29674125563e-06
6.55451587289e-05
4.81645158503e-05
-0.0122193991323
0.0122302043821
2.63250579008e-06
-0.000203627383378
-4.36685129012e-05
1.34189430773e-06
-1.78687438213e-05
9.93836846285e-05
1.02852221919e-08
7.75434035527e-05
3.95066117054e-08
-0.000249851613554
-7.82712506675e-05
1.84362670086e-06
1.06563815835e-05
-8.51661175645e-12
9.90054135826e-05
-5.81214905544e-05
-0.000268989030033
4.10653100232e-06
-1.97687120489e-05
6.91463236299e-06
-4.10205673939e-10
5.97686770176e-12
1.77917746189e-12
2.13189582655e-10
-1.86862498699e-10
2.28536870735e-12
6.6111043551e-13
-5.25506552723e-11
9.89800670892e-05
-0.000293978457214
-8.83975400114e-05
2.02402950501e-06
-2.31950544886e-05
4.86591979699e-08
4.00928716605e-06
-7.01602451207e-05
-0.000328980389813
4.75949285374e-06
-1.69142529118e-05
2.66702598584e-08
9.46300082253e-05
-1.3975075264e-06
-0.012498326536
-2.18337886912e-05
-1.04913391086e-05
1.67279203257e-05
0.0125071510107
2.13808053383e-05
0.0125246172224
-2.15126652394e-05
0.0123246165931
-7.58717073927e-06
-3.3144633599e-05
2.50437206326e-05
0.0124638028839
1.83099338448e-05
-2.3276970158e-06
0.0122919513283
0.0125157472737
7.63985114509e-06
-0.0125093705087
-3.64568989115e-05
-8.26270969433e-06
0.0125224761475
0.0125454818237
6.37505160578e-06
1.67585895318e-06
2.93556427015e-05
-2.72411554822e-05
-4.79708746692e-06
0.0124322585457
-5.82076855081e-07
0.0122908644355
2.06366618299e-05
-6.41755810703e-07
0.0125312403512
-5.91531715224e-06
1.43336217022e-05
0.0122404702376
-0.0125074471967
-4.67308155626e-05
1.11090935076e-06
0.0125234143531
1.67013065214e-05
0.0125446208576
7.16084968037e-07
-1.03573758335e-05
0.0122860983628
-6.30170120207e-05
3.5705955071e-05
0.0124593433605
5.6897496741e-06
0.0122696328888
0.0125305848775
2.16962180489e-07
0.0125490095671
-8.442790532e-05
9.9417700998e-06
7.19625717203e-06
8.25817248547e-06
-0.0125071531002
0.01252521233
-1.61044485887e-06
2.86625864454e-05
-0.0123816563537
0.0124356959915
-4.40293541546e-06
-0.000121440493428
-6.33253357975e-06
1.20010128127e-05
0.012534940958
3.59860069648e-06
-1.28535926664e-06
-1.23580640931e-06
-0.0125114609499
-4.99873243791e-05
3.17120052081e-06
0.0125293486727
5.24207014286e-06
1.85767542685e-05
0.0125562356117
-8.7535591854e-07
-1.91756456999e-05
0.0122456172649
-2.11615168875e-05
-6.47517352726e-05
4.06011416263e-05
0.0124439746002
1.23323378291e-06
4.13869099817e-06
0.0122397745565
-1.466924321e-05
0.0125398617297
-7.46087402077e-07
0.0125632556561
-0.000103283147543
1.46760741904e-05
5.44422761161e-06
1.03635322294e-05
-0.0125118935789
0.0125350402606
4.57838774207e-07
3.62934104501e-05
-0.0123781217629
-5.55071218305e-06
0.0124323980427
-0.00013659999769
-1.38266838174e-05
-3.03494548612e-07
3.62352576531e-06
0.0125495963754
-1.81296737183e-06
-7.98338542616e-07
-0.000159107750881
-0.0498190657395
0.0497834485685
0.000156097730006
3.64905593229e-05
3.77672952872e-05
4.33638406007e-05
3.92339027187e-05
-0.000118299352621
-0.000137277965771
0.0499761025686
5.20443011082e-06
7.73068257827e-06
6.14959278147e-06
3.55665338523e-06
1.17939211122e-05
-0.0499591560787
8.58735120998e-05
-0.000285482002717
-0.050009639558
0.0500834057676
0.000151830640964
8.93562287379e-06
-6.0303065991e-06
1.14554688555e-06
1.02944396241e-05
4.5539592582e-05
-0.000105740496137
-1.5334435808e-05
-2.16352879152e-05
-1.87297873851e-05
-1.33704705552e-05
0.000103787522728
0.0500748104344
5.05752731193e-05
-0.0500543633952
-4.33801127331e-05
-4.82377382775e-05
-0.000218804894916
0.000194741688586
6.10736164154e-05
3.83982132442e-08
-8.9166273284e-05
-7.446663588e-05
-3.04943384544e-05
-7.48215282426e-05
-0.000230121657278
0.000282829247868
0.000100541361827
-5.02925808406e-10
-8.85772583981e-05
-2.94812741769e-05
-9.69960517223e-06
-9.96464599242e-05
-4.44908073506e-05
-3.29222454554e-05
0.000107351915013
6.20645830265e-08
-5.98617297419e-05
-2.96476788651e-05
-1.71700909082e-05
-0.000144926858982
1.78563853271e-05
-2.58109938693e-05
-3.84684659234e-05
-0.000103330814766
0.000143722136182
2.73866822456e-05
-1.69784187762e-10
-6.76783758362e-05
-5.210609456e-05
8.9118561732e-08
2.14694273003e-07
-6.84730715081e-06
-4.35852984569e-05
-6.3488017425e-05
3.64182016553e-07
9.72027634507e-05
-4.75436082652e-06
-1.77965835148e-11
-4.30053810904e-05
9.94696960277e-12
-1.12259078661e-11
-1.93494217695e-09
3.1745304684e-10
2.10315009984e-11
1.52188972086e-11
2.40512151141e-12
-7.92898337836e-12
-3.07854464305e-11
9.45860888688e-12
2.41089379468e-11
2.97280527009e-13
4.13934609708e-13
-3.61216788297e-11
-1.26514933688e-30
4.62691773634e-12
-7.75692180842e-12
-4.18778606285e-10
2.57026461544e-10
-1.79388872514e-09
2.43578098524e-11
4.49073684403e-12
-1.31056065461e-11
2.08322117205e-10
1.3293676892e-10
-1.97948888264e-09
3.90841770028e-11
-1.6852374161e-11
1.18011329128e-11
-7.56208436934e-10
-1.6140357608e-09
2.15566226303e-11
-2.22645388152e-12
-4.84320611937e-13
-1.20707989514e-09
9.68637808239e-11
-8.94706911664e-10
-8.31446412061e-10
2.28689846707e-11
-1.71244435253e-12
1.12363580533e-12
6.0519982468e-05
3.75703563965e-05
5.84130060523e-05
3.8023991643e-05
6.00254201152e-05
0.049684299314
-0.000122905547694
-1.49410324456e-06
-0.04981452871
0.0497394935705
9.98946967152e-05
4.777113417e-05
6.24274025568e-05
4.9720868788e-05
5.91798496508e-05
-0.000156331730723
-0.0498416870276
7.39520449506e-05
-6.98898546426e-05
-0.012401401533
-7.77881073735e-06
0.0124219364012
1.05293939602e-06
0.0124299624824
1.8678193276e-05
5.35235190937e-05
-6.65573612386e-05
-1.18032560962e-05
-0.0124180197543
6.73046302637e-05
6.7682009145e-05
6.77470944502e-05
7.42958075195e-05
-0.000113162678354
0.0124328154378
0.0123950045199
0.0123687197463
0.0124367113222
-0.000216776836824
2.42762809111e-05
4.87003517956e-05
-6.54254280287e-05
-8.38476258461e-06
0.0124447112055
9.1038086357e-05
2.94008057262e-05
4.53514881147e-05
5.10889414058e-05
3.22522472134e-05
-8.04000545145e-05
-0.0498879187853
0.0498977721687
3.27673201885e-05
5.10449487588e-05
3.20541403374e-05
4.63425978248e-05
-0.000146603173344
-0.0499193839305
9.6997175207e-05
0.0124248520759
6.15687262378e-05
-6.49477781953e-05
-0.012400528342
1.0756046597e-05
0.0124630616038
2.56725853715e-05
-4.31000020958e-05
-2.17902393868e-05
-0.0124424845755
2.58342205327e-05
0.000253152857704
5.58029038702e-05
6.77468877245e-05
6.79294662944e-05
6.13308407012e-05
0.0497716598295
-9.40211094169e-05
-6.63489844003e-05
-7.17611237754e-05
-6.33246737239e-05
-5.55150534468e-05
-4.99067202537e-05
-4.95210451752e-05
-4.38265568079e-05
0.0498912418486
3.76916872349e-05
4.47267623036e-05
3.97668658304e-05
4.16447497955e-05
-0.00013852266225
0.0499154367584
0.000199734745484
4.24420248462e-05
6.07978740152e-05
4.46131664735e-05
5.95325685276e-05
-0.000178150097997
-5.12056865656e-05
0.0124475462559
2.96919938806e-05
0.0124229131351
9.5426371199e-05
-7.73477609006e-05
-0.0124188029201
4.30200478067e-05
-5.63175696634e-05
3.28305977579e-05
9.19834068493e-06
-2.90631926777e-05
-1.81373502553e-05
0.0124891159974
0.0124718988392
3.74880461354e-05
4.17698262215e-05
-4.20498306053e-05
-3.67461057661e-05
-0.012471542898
0.0501029374782
3.27720135495e-05
5.93285119851e-05
4.12422092543e-05
6.65397321229e-05
-0.000438834460282
-0.00023397399404
0.000310159199917
2.49002760122e-05
6.04797848646e-05
6.14192668207e-05
2.71890924302e-05
0.0503526034721
-0.000242021864366
-0.000491709346686
-6.96552499256e-05
0.0124441002254
5.75146423555e-05
-7.8634588408e-05
-9.72377367224e-09
-1.1183907904e-05
-0.0124862472795
9.15123121471e-05
0.0125220840762
-0.000111839847615
4.73152109078e-05
9.52924250286e-06
-3.51287689313e-05
-4.07983488471e-05
0.0124914138423
5.10963234323e-05
-1.42672420126e-07
-2.37372018793e-05
-3.67950781122e-05
-0.0124703705021
0.0124888864308
0.00012102475288
-2.72648004281e-07
-1.02818104059e-05
-5.31447056341e-06
5.75492874139e-06
5.52900945038e-05
0.0500217962219
2.86813400997e-05
3.96552017102e-05
2.85898097525e-05
3.81849646306e-05
-0.00014999081274
-0.049978933505
9.30408959239e-05
-2.86081989848e-05
0.0124729514451
1.66370275917e-05
-0.0124538869358
0.0124648705811
3.32409183496e-05
-1.41218491893e-05
-0.0124680170664
1.88805627088e-05
0.0124475224729
6.48316315826e-06
-2.33788134764e-05
-9.20366062029e-06
-0.0124685630513
2.2670996472e-05
0.000141992409337
3.73266086673e-06
-7.86497177214e-06
8.92649355136e-06
-1.87980903789e-07
0.0502230446311
2.3931874086e-05
0.0500705088682
3.02708360086e-05
3.87909823596e-05
3.27286966766e-05
3.82804941345e-05
-0.000142728903407
2.18648071741e-05
4.919036875e-05
4.57300785667e-05
1.97128608361e-05
0.0501136548676
0.000105743037658
-0.000143367904173
-2.00133078092e-05
0.0124720101377
2.57509926717e-05
1.66606275057e-05
-1.27504153383e-05
-0.012424150459
2.17673213061e-05
0.0124496486864
2.07275451861e-05
-1.44293604223e-07
-1.49106997651e-05
-2.82070750692e-06
0.0124687900709
2.61765133131e-05
-2.50706246055e-07
-1.62835809267e-05
-5.87296480843e-06
-0.0124210476251
0.0124055462263
8.0722377924e-06
0.0124658416558
2.46008871933e-05
-0.0124479156665
4.47807787838e-06
-0.0123887847718
0.0123929011336
-1.73705585983e-07
1.11171814857e-05
-4.85067598267e-06
-0.000148171821961
-5.41011156183e-05
-1.50679417193e-06
0.00020690570936
1.5212681426e-05
-0.000188438351444
1.01223111625e-07
0.000187265349719
1.64272624951e-05
-6.07934411847e-05
-0.000106879015647
-9.78538490832e-06
-0.000195515268015
6.34751884381e-09
-3.02707625075e-11
-0.000100366101119
-0.000106697843315
-4.39989259484e-05
-9.11465238262e-06
0.000225013756921
3.63327031104e-09
-1.21157577288e-12
-1.67409332793e-07
2.26423698722e-10
-1.8572472771e-09
-1.19832671429e-12
2.05545818551e-12
6.52051824355e-10
1.86330464723e-11
3.94018611491e-12
-3.4281797967e-10
-9.13178172334e-13
3.20090716179e-12
-6.93281236697e-11
4.11139725738e-12
8.92112912433e-13
-4.06911707944e-12
2.16732757186e-11
1.73944382036e-13
-2.9839848346e-12
-1.66366820245e-13
6.68443347401e-11
1.22698797687e-12
3.12707570402e-11
-1.35224090532e-11
3.07032860792e-10
-7.59992474691e-10
4.45703756589e-13
9.24466537822e-10
4.75532680787e-05
-0.000141816452504
-5.34846006872e-05
1.30410014488e-07
-5.58932540232e-11
-0.00021199634436
0.000159861832884
-3.42247510721e-05
-9.37118752413e-05
6.15579189054e-08
-0.000180134591485
6.00686824754e-08
2.62917737019e-05
9.13921320818e-05
-8.45158399445e-10
-0.000119412156809
-5.23026796811e-05
-2.54379072707e-05
-7.58535744963e-05
0.000132871685488
1.1316995093e-07
-5.61016187644e-05
-4.01413292814e-05
-4.08611401172e-05
3.60281419644e-08
0.00015258993618
3.69862569884e-05
-7.53411993509e-05
-5.71951296962e-05
-5.27201194186e-05
1.0747090685e-09
-2.02529180137e-09
-1.13462288994e-12
-2.13069338366e-10
5.64420162218e-11
1.28320049909e-09
-5.02070810368e-10
-5.13946335328e-10
4.20433590498e-10
-1.21364912333e-09
9.34384544862e-05
-5.01229917239e-09
-5.73342015469e-05
-1.80310621718e-05
5.43436278443e-08
0.000297460661883
-0.000107200497532
0.000176394591277
9.05874581319e-08
-5.60345222981e-05
-4.99217475885e-05
-2.57630767519e-05
-4.70923385988e-11
3.93491056049e-05
-5.14229334033e-05
-6.44641153995e-05
-8.63024966154e-06
0.000196504871281
3.34026353339e-11
-2.77507564382e-09
-5.62351710961e-11
-2.17062773705e-11
2.11416345609e-09
-2.2675089295e-11
-1.35243772002e-09
3.36829775116e-11
2.03510004662e-05
7.13506900409e-08
-4.51866372187e-05
-4.12709373295e-05
-2.1636145281e-06
2.74195911541e-10
6.01796686933e-05
-2.41983009238e-05
-3.76613115563e-05
-1.57518860523e-06
-6.51732801604e-05
1.11696302167e-05
7.70826285468e-10
-8.89201254561e-12
-7.41173444502e-10
-4.90722088237e-12
1.39422898289e-09
8.15774810563e-12
-1.88290492421e-10
-3.01626357906e-11
1.60377011689e-05
5.92655711496e-08
-0.000145451919592
-1.03143420283e-05
3.6113449544e-07
0.00013732181973
8.14405368563e-05
4.05323997496e-08
-8.11481250438e-05
-3.51250209979e-05
8.54184416021e-08
-9.02271523285e-12
-2.09328465351e-05
-9.98148062047e-05
5.32340661586e-07
9.67268408947e-05
2.77908284208e-06
1.78325734599e-11
-5.93148318931e-10
-9.9596416353e-12
2.01453669754e-10
9.09334711256e-10
-1.50200850588e-13
1.42841400473e-11
3.97278821097e-12
0.0124565101394
3.04131208217e-05
3.88626929046e-06
1.15570599438e-05
-0.0124647987488
1.49220101824e-06
-0.0124423110941
0.012430898411
-1.55066723107e-06
-2.57565062912e-05
-8.88926188546e-05
1.06270197794e-06
-0.0124363702888
-4.16767966408e-05
-0.0124553790389
1.20682518423e-06
0.0124509578572
1.41187216765e-05
0.012440224381
5.26022985692e-08
-0.0124338357746
-3.49520971752e-06
-0.0124638072411
0.0124587169148
2.37334202128e-05
4.17064416501e-05
-0.0124648266872
-2.26334262337e-05
-0.0124572564777
0.01244889296
2.68608224825e-05
-5.59300398059e-05
-0.0124396819656
0.0124378979198
-7.41388612757e-05
-2.67456023961e-05
1.61161245269e-05
-0.0124390516302
0.0124439537294
2.33129609166e-05
-0.0124718174079
-0.0124121918401
-0.0124289657724
3.98498348849e-05
6.29154532675e-05
-2.45563300252e-05
0.0124180722003
-2.59729183083e-05
0.0124439272369
3.31817603718e-05
-7.71940256521e-05
0.0124179491686
-8.33532872507e-06
-8.57002745089e-05
-2.9110292194e-05
3.04880327017e-05
0.0124247480979
-2.04538157839e-05
4.03773436383e-05
0.0124319463599
-8.70323815984e-06
0.0124270172386
-5.7463805609e-06
0.0124758121709
2.54451117805e-05
1.19497271585e-05
-0.0124780677053
-0.0124610707726
1.18965324794e-05
0.0124564363695
-8.4233308187e-05
-9.5254009678e-06
-0.0124338610261
-4.14112813713e-05
-0.0124651352989
1.90365770229e-05
0.0124581584219
-0.0124766399258
1.35276774502e-05
0.0124650192661
1.85305968271e-05
-0.0124360476038
0.01247731914
2.30257654853e-05
2.28917504547e-05
-0.012478509985
-2.19447961201e-05
-0.0124739987109
0.0124730922728
3.07767082749e-05
-2.88805303434e-05
-0.0124488306472
0.0124731657024
-5.28949079476e-05
-3.7090327456e-05
-0.0124641278306
2.38959095574e-05
0.0124720757753
-0.0124850004298
2.74731150361e-05
-0.0124266893566
-2.75551478051e-05
-0.0124537634066
4.20516764661e-05
0.0124452160481
3.0531049322e-05
0.0124530429476
2.31395779083e-05
-6.87027450794e-05
2.22011085974e-05
0.0124359263097
-5.31943362566e-05
0.0124462259584
2.45831977627e-05
0.0124405420434
2.04212152505e-05
0.0124548208557
3.53804853674e-05
-3.64777735741e-05
0.012450193905
4.310553046e-05
4.41770637408e-05
-0.012438951072
5.14288009149e-05
0.0124408151162
-6.29088540394e-05
-8.54386850358e-05
2.64937401973e-05
-4.35255282402e-05
-5.32360177442e-05
-0.0124615542279
5.61862832322e-05
0.0124510134349
-5.24110314945e-05
6.11452982593e-05
0.0124485891444
4.56661928383e-05
-0.0124680712285
3.2183659713e-05
3.4921810575e-05
0.0124691543437
-2.4982931641e-05
0.0124749615174
3.8781901305e-05
-3.9176346602e-05
0.0124683748236
-3.23753877636e-05
-3.02462773484e-05
0.0124825691749
3.43097099722e-05
0.0124718695001
4.45508247455e-05
0.0124726339447
0.0124723014143
4.4968495653e-05
3.84828034138e-05
-5.41992296092e-05
-0.0124760879675
0.0124829833882
6.6053019787e-05
-4.7593573393e-05
-0.0124704990041
0.0124597246975
-4.52526737787e-05
-3.54430020339e-05
3.47320616073e-05
0.0124762457138
5.50354927867e-05
-7.66903487319e-05
-0.012471666354
4.33786929457e-05
0.0124979745786
9.40961585371e-05
-8.70769364178e-05
0.01246228477
6.60354434817e-05
-8.20706254316e-05
-7.51031369078e-05
-7.30802752694e-05
6.43051891098e-05
0.0124601069828
-9.56159492763e-05
-4.93572695481e-05
0.0124639312005
6.613600654e-05
0.0124900012305
-8.62582894998e-05
-9.12199379357e-05
7.839931712e-05
-8.47673230327e-05
0.0124905360141
7.53054916262e-05
-8.78957337473e-05
3.60298611834e-05
0.0125373657699
0.000102952962881
-9.04458172847e-05
-0.012536226762
8.27912186524e-05
0.0126023107424
-9.57420399915e-05
-6.43066515273e-05
-4.44998118494e-05
7.44852700828e-05
-0.000111139207017
-0.0125215615317
-3.39526759598e-05
8.63166409838e-05
0.0125426875855
-0.000102990128932
-7.56448315999e-05
8.51255369981e-05
0.00010004435805
0.0125850547476
-9.88991620698e-05
-0.0124892504153
7.79755178344e-05
2.28555382574e-05
0.0125153177164
-6.60063211337e-05
0.0124962179888
7.69719738016e-05
-4.065236863e-05
0.0124688510998
-4.8130964679e-05
-5.60741893561e-05
0.0124887738949
5.29576517042e-05
0.0125104604358
8.21546783663e-05
0.0124867398054
7.85412619718e-05
1.7037926823e-05
0.0125475925954
-0.0125234220884
-6.78607717561e-05
7.55064938687e-05
0.0125525149501
-0.0125149757452
-3.00280031476e-05
0.0125313577786
-4.68237362406e-05
-6.29866054015e-05
5.63603383175e-05
8.01771525116e-05
0.0125768838887
-2.06046281285e-05
-0.0124894622876
1.07721092347e-05
0.0124936596288
1.08366304836e-05
0.0124853114599
1.56574987096e-05
-0.0124830691726
-2.68132106974e-05
1.15965520549e-05
0.0124696697973
-9.90759892075e-06
0.0124846136912
-0.0124933103893
9.66504931829e-06
0.0124885659555
-0.0124895162165
9.36038451167e-06
0.0124805245025
8.98851307723e-06
-2.63219195639e-05
0.0124958187612
8.77299291751e-06
1.51030963282e-05
-0.0124912961665