/*--------------------------------*- C++ -*----------------------------------*\
| =========                 |                                                 |
| \\      /  F ield         | OpenFOAM: The Open Source CFD Toolbox           |
|  \\    /   O peration     | Version:  v1906                                 |
|   \\  /    A nd           | Web:      www.OpenFOAM.com                      |
|    \\/     M anipulation  |                                                 |
\*---------------------------------------------------------------------------*/
FoamFile
{
    version     2.0;
    format      ascii;
    class       volScalarField;
    location    "13.95";
    object      alpha.water;
}
// * * * * * * * * * * * * * * * * * * * * * * * * * * * * * * * * * * * * * //

dimensions      [0 0 0 0 0 0 0];


internalField   nonuniform List<scalar> 
28582
(
0.999978444915
0.999972226759
0.999987562258
0.999987333773
0.99999733605
0.999997687999
0.999985286344
0.999986410328
0.0583983993235
0.0603979615278
1.27351701488e-30
0.999985099265
0.853580700376
0.848710021078
0.999986134148
0.999978646567
0.848841794117
0.997632445748
0.997218385145
0.999983893482
0.999983970215
0.999993859296
0.999992006946
0.99998738416
0.999991955926
0.999997257225
0.999998242946
0.99998488302
0.999984551112
0.0614028439197
-1.65460356247e-28
5.76211992148e-09
0.999986521183
0.999985982821
0.859183446342
0.857574351131
0.998290188609
0.999982012216
0.999977767946
0.999978873551
0.997619760994
0.840881575531
0.997216863704
0.997195133014
0.0593962083432
0.0612722646584
0.000307613174619
0.000306710934831
0.0597915921152
0.000193240186955
0.998104090847
0.998019043554
0.8515972189
0.853540927134
0.99809510372
0.851151013862
0.998046715036
0.997965468429
0.997934668506
0.849838103629
0.84920369757
0.997888256285
0.849719164304
0.998002552352
0.997733132409
0.997864583795
0.849269978907
0.849217985847
0.997783060263
0.849211382837
0.997845568641
0.997825208357
0.848120136394
0.846898365504
0.997689417393
0.848902595769
0.84855833979
0.997842677196
0.997144332549
0.844717332431
0.843651027108
0.99727606545
0.846278280066
0.99720625439
0.846911749477
0.0568899516383
0.000143236330429
0.0554692134676
0.0564485960905
0.000133764412647
0.000142944629293
0.0622494461876
0.000364256769178
0.000378362684249
0.0631379949454
0.000361695766384
0.0623926372627
0.00031018954023
0.998114567676
0.998220020002
0.859132413695
0.859380724346
0.998022894023
0.998268668704
0.859359180879
0.99803423019
0.997843697873
0.858500580609
0.858248571777
0.997915273408
0.997986024088
0.858888583071
0.858625430587
0.857342634769
0.998207769958
0.998202849177
0.85756110453
0.998135602235
0.858344808299
0.997840249674
0.846604372756
0.844301073501
0.997643090329
0.844861550405
0.997873976676
0.84169376714
0.997657584866
0.997844610606
0.843072299477
0.839249679714
0.997865190633
0.997650578116
0.840272735782
0.997174467911
0.99714314789
0.842597749942
0.841434088221
0.839163351463
0.997264026751
0.840470388712
0.837874210266
0.837065765273
0.997188248099
0.997319336438
0.838651267661
0.997321298429
0.839545218249
0.99999887857
0.999980011084
0.0635079400755
-9.7046165782e-28
0.999987886053
0.854861384582
0.999978899496
0.999979146189
0.839179919802
0.836880839236
0.837623106995
0.999979924109
0.999980975583
0.837852590234
0.839140421708
0.0579995107301
0.0640714934265
0.0647351871462
0.000283425325859
0.000320014642926
0.000245250286525
0.0651846232564
0.0650982268553
0.998079594884
0.998136617539
0.855311149302
0.852127273633
0.998093577085
0.852764587923
0.998089907426
0.997505859696
0.997793242011
0.837560263945
0.838096096313
0.997710591841
0.997604008102
0.836991237581
0.99716398638
0.997121180183
0.838172068961
0.836535666037
0.997279978065
0.837187012593
0.99698160387
0.996978028681
0.996499887225
0.837765803596
0.836835663925
0.99670313276
0.837377887216
0.99674633789
0.996495694118
0.996466604519
0.837618848156
0.838451979245
0.996505180993
0.83763660848
0.996485925809
0.996550343802
0.996775199512
0.838101145439
0.838702533556
0.996683529062
0.837746974141
0.996586618361
0.999980399704
0.999983714367
0.999983363475
0.999991879938
0.0429661644657
0.0484279148939
0.0448142406132
0.048754742419
0.0475065046506
8.59540938055e-08
1.37255643374e-05
7.2297473966e-07
7.82190558704e-06
-4.01519853274e-27
5.2926208659e-07
0.999989819513
0.99999202377
0.898591091324
0.898691490785
1
0.898902862334
0.999988104263
0.999985752957
0.897495413687
0.888713989406
0.999981047518
0.999979631995
0.999974960596
0.897540799322
0.895314653986
0.888418843109
0.883999440062
0.999967898035
0.999961453901
0.891337601461
0.864390289691
0.880276409683
0.864140355395
0.999982477037
0.999988631071
0.88701691899
0.882827968954
0.882818188553
0.999981705406
0.999987472834
0.99998657625
0.879744428797
0.865865623562
0.880168726298
0.869575268552
0.87978666504
0.869797931244
0.0409616478471
0.0405382897578
0.0424756262579
1.23696384279e-05
8.03774342046e-05
4.46020354731e-06
2.33798776774e-05
0.000262157301442
0.000620214800065
0.000262516427593
0.000666203938606
0.0410958827206
0.0427725114326
0.0453991881583
0.0443456080038
0.0465051427355
3.98807490973e-05
0.000110460093115
7.37348709471e-05
0.000134358795596
0.0513857331785
0.0490509560899
0.0516528263398
0.000264124799481
0.000647131604124
0.000232638070939
0.000471339595449
0.0466074522913
0.046141650252
4.56778635082e-05
4.76676416206e-05
4.89762127799e-05
0.0512858268607
0.0480273941573
0.0503663404978
9.72841110953e-05
0.000198174252329
5.89016031306e-05
8.58903429864e-05
0.999078289652
0.998831110193
0.898486467854
0.898957177978
0.99884358686
0.898885963661
0.99905446607
0.999061263561
0.998798904052
0.899019744771
0.89853045214
0.998828205869
0.999035435872
0.898923530911
0.99877073504
0.998713313782
0.899245752682
0.899297555751
0.998767211016
0.998716499232
0.899711254857
0.998769604608
0.998634763307
0.896838279295
0.894296339593
0.998856105055
0.99851954477
0.893966883914
0.998596984224
0.998319872763
0.891459467178
0.888347520481
0.998386794944
0.99855480155
0.891079342643
0.998397874071
0.998585305516
0.89735756503
0.894088101663
0.998573195473
0.998423339517
0.893590238155
0.998404023149
0.998676548998
0.896729511135
0.890362213288
0.998589246195
0.998427103687
0.892353237673
0.998275898214
0.998266117525
0.891177720174
0.887726396712
0.998300632996
0.998240082277
0.890438433898
0.998286492016
0.998244217526
0.886829379332
0.886141379604
0.998321015909
0.998240467176
0.888942754375
0.998488138561
0.998803712226
0.885018867732
0.886049373785
0.998760785639
0.998507480406
0.880267688777
0.998420536359
0.998444325708
0.87536714251
0.862250566371
0.99864370843
0.871541720104
0.998258159255
0.998344000671
0.998291186009
0.883053325667
0.876109213955
0.998379440658
0.998271415672
0.878178372886
0.998275581923
0.998147287893
0.863421071003
0.870113137586
0.998221314545
0.871232003303
0.998140617094
0.998279057156
0.998276973302
0.886269081536
0.886113369758
0.99827236919
0.998280383884
0.885501052214
0.998306985216
0.99833309257
0.884737743692
0.882383209612
0.998289405002
0.998375958109
0.884025026418
0.998381370096
0.998526651645
0.882558048685
0.88425063344
0.998486470479
0.998388161149
0.884130266412
0.99853729064
0.998428968792
0.876135894623
0.879558994821
0.998432937388
0.998495175107
0.876435338947
0.998525697687
0.998339127316
0.871132445991
0.86743339808
0.998407366735
0.871916595831
0.998488093582
0.998742497811
0.998690482799
0.879850981601
0.877163310189
0.998644138404
0.998833032794
0.87675129965
0.998740552883
0.998864705471
0.868722153551
0.873306133576
0.998864656298
0.872716195937
0.998729993977
0.998875726933
0.99868737042
0.876913055469
0.879239750214
0.998875184298
0.998666227677
0.876249646221
0.999010082163
0.87331456627
0.998972281853
0.999975095068
0.999982355402
0.99999418243
0.999996548652
0.999994939948
0.999985474
0.999991723311
0.999990694728
0.999992762961
0.999996328952
0.999995529025
0.999988309872
0.999924008512
0.999991319103
0.999975546285
0.999929346645
0.999947020238
0.999983233057
0.99997535619
0.999953768485
0.999985424453
0.999941763541
0.99993985412
0.999977227272
0.999991437314
0.999992646662
0.9999914593
0.999986279914
0.999978414739
0.999974795745
0.999981175116
0.999991091972
0.999994141004
0.999996184407
0.999996682417
0.99999100008
0.999987728768
0.99997494517
0.999977757349
0.999990206748
0.999998070345
0.99999831015
0.999997669694
0.999988645522
0.999997884684
0.999998307239
0.999996978189
0.999987978224
0.999900289203
0.999995575279
0.999956976088
0.999850125297
0.999900510965
0.99991023364
0.999907896618
0.999953318212
0.999824250556
0.999969071773
0.999979329872
0.999918179021
0.999920184392
0.999964832972
0.99995303364
0.999948960128
0.999972695717
0.99999269854
0.999991951585
0.999977689131
0.99996483349
0.999975726276
0.999986757014
0.999985606731
0.999990503446
0.999991169146
0.999993211287
0.99999578141
0.999996877434
0.999996783371
0.999995799875
0.999993947068
0.999996590608
0.999998776913
0.999997850302
0.999993016965
0.999916321315
1.0000096056
0.99998544987
0.999793163867
0.999838181672
0.999942061249
0.999946106874
0.999969387873
0.999928545397
1.00001109399
1.00000155147
0.999944348874
0.999901411411
0.999943025985
0.999977059853
0.999983472877
0.999991076701
0.999996888546
0.999998389424
0.999998790479
0.999998591355
0.999998337567
0.999997500466
0.999997901127
0.999998273914
0.999997746863
0.999998551608
0.999999800624
1.00000009163
0.999999934749
0.99999952885
0.999998782912
0.9999990331
0.99999786607
0.999999070495
0.999999848273
0.999999989908
0.999999958496
0.999999728323
0.999999948965
0.999998927293
0.999998641009
0.999998423053
0.999953034448
1.00001914615
1.00001166714
0.999936076764
0.999800459668
0.999911421563
0.999970547176
0.999958751864
0.999958860699
0.999969070755
0.999969738712
0.999968733695
0.999967079822
0.999961997757
0.999965865586
0.99997054407
0.999955110764
0.999980503998
0.999975949573
0.999962181309
0.999947989349
0.999962645353
0.999978028429
0.999978051624
0.999972673855
0.999961672732
0.999948698058
0.999977341493
0.999974148759
0.99997853812
0.999991992522
0.999992829435
0.999982495375
0.999961902891
0.9999446123
0.999948926536
0.999987122316
0.999991868704
0.99999068512
0.999981170646
0.999951095337
0.99994224055
0.999956622762
0.999972045652
0.999969385972
0.999973595029
0.0596928688748
0.0623150876156
0.0662762904971
0.0656014032622
0.0637111509529
0.0641129228404
0.0653839431063
0.0675916088859
0.0538369715183
0.0586348525444
0.0617622482647
0.0640878658955
0.0674416349675
0.0632346846671
0.0644113001147
0.0651690646742
0.0657136517093
0.0653814204521
0.0533792052962
0.0587124030704
0.0617813703816
0.0619723176676
0.0608458920321
0.0609687337655
0.062450204181
0.0650796723806
0.0665404752497
0.0661849931216
0.0557821697524
0.0573425886473
0.0575906162223
0.0577711592741
0.0591987777671
0.0616962506761
0.0644543203888
0.0661423742289
0.0657965476216
0.05743495154
0.0584733097041
0.0585082378175
0.0621135347095
0.0644220832878
0.0653472136038
0.065011755036
0.0650495616221
0.0650241956967
0.0645739858348
-3.55188945578e-24
3.62019628731e-05
6.82958037683e-05
8.07709355323e-05
1.56723347872e-05
5.25503233704e-07
4.24158723601e-07
-6.75708613156e-29
-1.61635910194e-27
2.56689345945e-05
5.73467016626e-05
6.71441112341e-05
6.91993173743e-05
1.47703541954e-05
7.67620151157e-24
5.87253540615e-05
1.33124379833e-25
-4.84936309248e-26
-6.91507779512e-26
2.71898958109e-05
5.35194248924e-05
-9.46245954208e-26
-4.85182658447e-24
-9.4216520312e-27
-6.24151558337e-29
-1.33890109091e-26
4.38796183888e-05
-5.59835468745e-25
-2.05278452247e-24
3.56506398977e-05
-2.40317700271e-30
-1.7105895614e-29
-2.73520426249e-28
-4.01423178693e-27
-3.20719789324e-25
-4.16698639757e-24
-6.17828605336e-25
-1.30658331782e-24
3.58506524551e-05
-3.32451490485e-30
-3.0490814534e-27
3.41663309958e-05
-1.28287838121e-26
-4.11340002992e-26
-2.22701084104e-25
3.66343102654e-05
-8.88293877508e-28
-4.74556831577e-26
3.78631539241e-05
0.999969420765
0.999978989603
0.999982552021
0.999877553595
0.999986294771
0.999857794248
0.999948842658
0.99999441343
0.99996373282
0.999945530546
0.99999454292
0.999994507655
0.999983717252
0.999984664178
0.999984619645
0.999978723221
0.999981881017
0.999966892597
0.999969217409
0.99998441301
0.999958414831
0.999931582298
0.999957252464
0.999931768061
0.999933268841
0.999931413676
0.99993176806
0.999931582298
0.999980646395
0.999836712269
0.999957157254
0.999871830988
0.999977035633
0.999773992739
0.999958413291
0.999995054468
0.99999064087
0.999991902274
0.999995374028
0.999999005899
0.999993986743
0.999995605637
0.999896454038
0.999961379145
0.999953999036
0.999752835634
0.999944495523
0.999899723244
0.999961502843
0.999984864455
0.999931965222
0.999941936483
0.999986688421
0.999994247741
0.999987031021
0.999999358321
0.999991378236
0.999944610097
0.999997773905
0.9999697718
1.00002121052
0.999969018274
1.00003064403
1.00000786056
1.00000693412
1.00000730155
1.00005240907
1.00003611249
1.00007086887
1.00005244886
0.99999476592
0.999954888122
0.999992212316
0.999981074913
1.00000417749
0.999980406851
0.999994414082
1.00001161578
0.999997695253
0.999999276066
1.00002158644
1.00002416048
0.999999096219
1.00000050479
0.999692868932
0.999828639754
0.833043220203
0.826445161442
0.999999795787
0.999978160701
1.00000031877
0.832010147257
0.826079602523
0.826864498441
0.822132763284
1.00002341898
1.00001009867
1.00001301817
0.825631629133
0.830908393922
0.820993635022
0.823878554804
0.999996182539
1.00000767828
0.999997482296
0.833483177811
0.838694552485
0.82528861614
0.833304990203
0.999830109263
0.999965147915
0.999905887139
0.841430478801
0.8499257364
0.836006863639
0.841537805432
0.999830052203
0.999879299719
0.999889011429
0.85072781225
0.847844007924
0.841447952334
0.841114999134
0.999970311105
0.999928414229
0.999972228888
0.844820374605
0.837245920739
0.8403625022
0.838328841884
0.999970395539
0.999980444617
0.999979130148
0.835623443644
0.835786601746
0.837646069453
0.834456673133
0.99977596481
0.99996775443
0.999922738339
0.845238841901
0.824076086563
0.839644784054
0.820812913566
0.999960054137
0.999958427899
0.853248465147
0.832393241619
0.858242509041
0.842082498204
0.999962153563
0.99995921362
0.999960456098
0.829570598791
0.826954709151
0.838921737716
0.832481707796
0.999968670902
0.999953978772
0.999944121617
0.826545758657
0.8202701602
0.830444690729
0.825119547059
0.99996941891
0.999936374721
0.999940320398
0.819399337206
0.821066517098
0.824575815318
0.829370204234
0.999967532885
0.99995050021
0.999959524918
0.823525184363
0.833666394501
0.832060845805
0.839636140265
0.999962955511
0.9999739996
0.999976553355
0.837478601343
0.840825341977
0.841393614355
0.842119603684
0.999963778862
0.99997899306
0.999978672029
0.840934534623
0.841266209602
0.840797711579
0.838991407611
0.999969091171
0.999980708308
0.999981036985
0.840653445131
0.838369535043
0.839576416322
0.840192332626
0.999969402427
0.999979913423
0.99997776502
0.837859569211
0.832426995791
0.839747225689
0.83410577827
0.999943130429
0.9999650425
0.999969145671
0.837686295961
0.822720730266
0.839197026912
0.824925918091
0.999977573742
0.999984602134
0.999981324351
0.860518826608
0.84559767149
0.865975094668
0.855018549155
0.999970041524
0.999975836614
0.999971967363
0.841968071713
0.835367064165
0.851435231794
0.846738909721
0.999947719793
0.999962740608
0.999958506091
0.833446083971
0.829138383504
0.846009075756
0.846638127009
0.999951383684
0.999958247091
0.999962577145
0.829232216859
0.832614662026
0.847146964152
0.845831611889
0.99997428357
0.999973662784
0.999978008096
0.834995455185
0.841506953043
0.845453683763
0.844964971734
0.999980512057
0.999982816844
0.999979309538
0.84165101557
0.84123343857
0.845004758062
0.843873714058
0.999977361962
0.999979063324
0.999975513698
0.840648624979
0.840806311869
0.843764993415
0.843862832788
0.999968551753
0.999970712398
0.999963463423
0.8408836484
0.840343293217
0.843083931845
0.838720892782
0.999953405974
0.99995403592
0.999949979444
0.839651247993
0.83441405531
0.837460088435
0.836079541512
0.999963190038
0.999951626434
0.999970263962
0.839327516291
0.827117204914
0.841367981393
0.830857837865
0.866752814429
0.856643035848
0.999974453095
0.999977089759
0.853815172278
0.850658362529
0.857988186151
0.999974493389
0.999976253166
0.999977493475
0.850179449101
0.850905993309
0.858484254517
0.85753461718
0.999985741601
0.999981153582
0.999988675562
0.850750413468
0.848124398424
0.856162163332
0.85158228316
0.999994084478
0.999993820809
0.999994409928
0.847080546768
0.845602874146
0.850783760845
0.850360220611
0.999990006146
0.999994090334
0.99998909318
0.845828735239
0.845237710735
0.850186122844
0.846642514149
0.999973854569
0.999979861737
0.999965783827
0.844151736383
0.841920342149
0.844440341594
0.840208842137
0.999950688039
0.999952056531
0.999947124318
0.841499657485
0.839726089433
0.840386539458
0.840787445037
0.999945073607
0.99994642259
0.999948411995
0.839045705509
0.837354271823
0.840932702365
0.838520426744
0.999973105878
0.999955630541
0.999981413485
0.842902606431
0.832654361882
0.84470138711
0.834234057557
0.999990339739
0.999990662863
0.855634119156
0.851382105334
0.848891378053
0.999991321325
0.999991388692
0.999992430919
0.850731492253
0.850988162315
0.848928618433
0.848679237395
0.99998671441
0.999992099572
0.999990532616
0.852007190906
0.846704491254
0.849431031294
0.842314657939
0.99996834592
0.999986333476
0.999978471256
0.844308105594
0.839212868439
0.839937543456
0.836890778854
0.999941398239
0.9999654862
0.999955465823
0.839231690096
0.839986336469
0.837065305255
0.837976501544
0.999947963158
0.999953742792
0.999956039065
0.840475540392
0.837980931449
0.839180377671
0.83579248917
0.999983421704
0.999962309137
0.99998610037
0.844338899943
0.834447549522
0.842217901999
0.834008028592
0.999975198813
0.836922805835
0.99996920649
0.837118970552
0.837687670362
0.99997070527
0.83858887619
0.835273667544
0.999988072451
0.841567303014
0.833799949069
0.000507147169692
0.000442994558188
0.00064878555482
0.00063166792726
0.0584099607634
0.0597725333864
0.00058668175942
0.000529898537627
0.00100358009057
0.00097783196172
0.0609644236911
0.0605193580499
0.0615584800756
0.000716982801371
0.000919484850642
0.0012619224202
0.00155757534455
0.0640771891522
0.0634773577455
0.0655815849835
0.00139733117628
0.000946021241557
0.00162606491924
0.00123628841198
0.0668152768712
0.0679452178432
0.0672733540585
0.00049973724648
0.000304722638245
0.000869009454329
0.000810026023534
0.0640491355687
0.065881316922
0.0645396536162
0.000215745315381
0.00022875660699
0.000484951156835
0.000382637871113
0.0639053262477
0.064197436364
0.0643207361257
0.000348157305502
0.000406148066387
0.00044460111525
0.000406812400765
0.0646441686897
0.0645784474441
0.0649606612553
0.000412243966383
0.000383268099572
0.00037207399624
0.000313885598897
0.0658772786708
0.0653552801462
0.0658125162809
0.000262383068313
0.000143959319857
0.000188175073028
0.000124115750687
0.0732289074608
0.065582969703
0.0715720287362
0.000160651671408
0.000323388896238
0.000157614536398
0.00052394199468
0.0563387036418
0.0537782174611
0.0565436731192
0.00112695278263
0.00125483336608
0.0010199170992
0.00102763793669
0.0604266273801
0.0592401550243
0.0611180497888
0.00127118510359
0.00122268670461
0.000842557987527
0.000880211104715
0.0626068819006
0.0625207679246
0.0633175411947
0.00135507119086
0.00150888453276
0.000983007252449
0.00104418881135
0.0666832280427
0.0638403322279
0.0646539497484
0.00115855694465
0.000781013589774
0.000876693027206
0.000690784299646
0.0660074587747
0.0644650710538
0.0631431752173
0.000499562456255
0.000679321216017
0.000473769839732
0.000538596030454
0.0632472326141
0.0611804143343
0.0616893780947
0.00137850039547
0.000813004384148
0.00130383186922
0.00101795827219
0.0648624528464
0.0638237874254
0.0649494421014
0.000381186653213
0.000350606286534
0.00038490084739
0.000242929603247
0.0655398698773
0.0655543730155
0.0660435767825
0.000333452892934
0.000287770472956
0.000235683905845
0.00022953654943
0.0661151671208
0.0661917333387
0.0666457219024
0.00019561284685
0.000136862787361
0.00019588385416
0.0001596973968
0.0714206447614
0.0657228559024
0.0712194765573
0.000171074229252
0.000478991256588
0.000193482507195
0.000418197954873
0.0560191781302
0.0524299175308
0.0548776382749
0.000739458559703
0.000805673185964
0.000508554867249
0.000685681325275
0.0605376785546
0.0573515071853
0.0588102837342
0.000491114715356
0.000550754113586
0.000421511230089
0.00045465013278
0.0622775023258
0.0595980701151
0.0597116118717
0.000619154323453
0.000635539802771
0.000489834299662
0.000457243805912
0.0613115603745
0.059313933216
0.0587213875589
0.00059221667725
0.000521266940138
0.000410103334205
0.000370055466395
0.0605297874314
0.0585138762464
0.0589008821596
0.000473843471021
0.000437809720569
0.000356244225608
0.000339035359105
0.0618529653368
0.0598288933491
0.0609028021672
0.000399514183802
0.0004465052599
0.000286615367818
0.000398462496796
0.063570143065
0.061333435673
0.0622690143875
0.000909929171719
0.000703625694801
0.00107811771496
0.00120367308092
0.0659815097102
0.0644537916504
0.0659182933943
0.000255293921214
0.000189690192714
0.00040883365979
0.000158525989422
0.0671032442673
0.0666310510793
0.067173588097
0.000189049893551
0.000178660943015
0.000161227264702
0.000165826328915
0.0710768626179
0.0662467047119
0.07070457771
0.000231684423442
0.000465551559789
0.000238798243574
0.000535964700717
0.0567913045376
0.0550855385263
0.000297016190742
0.000310508284999
0.000179324659474
0.0575485159849
0.0558059085742
0.0564758060296
0.000320826285736
0.000288766386747
0.000187817533401
0.000187847874692
0.057527792654
0.0570463093685
0.0574194156654
0.000265501761656
0.000248297308799
0.000190966136279
0.000197070530742
0.0584058119377
0.0577014032324
0.058260736449
0.000250731307061
0.000254436931905
0.000211102323715
0.000250641152793
0.0602063895693
0.0590942044343
0.0601998078604
0.000243501823146
0.000299801040538
0.00026859187109
0.000245429276547
0.0630528171721
0.0617468590412
0.0631238167679
0.000309007799919
0.000340363859004
0.000246377635167
0.000275403200349
0.0655611466599
0.0642912804021
0.0651478752431
0.000306325857341
0.00024516836674
0.000283851198627
0.000283186515639
0.0668470207272
0.0656282991181
0.0666286980844
0.000187557093269
0.0001878965286
0.000232487798606
0.000239394852142
0.0700681198704
0.0653534358242
0.0693780014616
0.000244655287023
0.000552355531403
0.000242085432396
0.000529997910969
0.0581039612346
0.0589097936404
0.000153878003022
0.000156049107333
0.000151454329212
0.000142531181132
0.0587313438016
0.0593496372462
0.0596995887765
0.000161779244961
0.000319610090462
0.000139350697264
0.000341461387448
0.0600699434838
0.0592219183672
0.0610545374484
0.000699046715211
0.000455905175853
0.00101085794581
0.000506106357042
0.0634301738961
0.062956861633
0.0640769971158
0.000277714614658
0.000310183375785
0.000243591873113
0.000276604861503
0.0651223247741
0.0647908497275
0.0652471717119
0.000300771630544
0.000294297720866
0.000269337251902
0.000265710568016
0.066445121274
0.0651249669794
0.0663233078283
0.000228493574221
0.000248322305326
0.00020485814567
0.000242890711773
0.0686114601155
0.0648436865029
0.06811999031
0.000265601664757
0.000534107510856
0.000297685130999
0.000544591311713
0.0644961478901
0.000275229286126
0.0652324398463
0.000258487235247
0.000247126143684
0.000197660150737
0.000181646382951
0.06614108946
0.000187518817673
0.000213918557094
0.00014259515617
0.000141447118932
0.0677427072794
0.000286419769704
0.000554297573092
0.000206578756953
0.000590012893497
0.998003998735
0.998063051645
0.83340895886
0.829490347694
0.997779012306
0.829510443956
0.998285391992
0.997742211561
0.9975747858
0.828326528426
0.825931945485
0.997689913207
0.997580900408
0.827098192922
0.997397299435
0.997828380182
0.830329098139
0.829102332789
0.997603168104
0.8279952319
0.997555253264
0.997180387481
0.997316002674
0.828739370147
0.824089435153
0.99716728572
0.826439115872
0.997332311204
0.997559686095
0.997563374759
0.828400177101
0.826398933625
0.997651928394
0.997508447982
0.82729094751
0.997437474115
0.99723764201
0.822267711488
0.824953475714
0.997341558455
0.997383098407
0.825222462138
0.997257752863
0.997349236376
0.826248828769
0.823089137169
0.997211904535
0.823653388366
0.997375053844
0.997243330716
0.997151173453
0.828237100101
0.828194776433
0.997114427646
0.82569271026
0.997346433506
0.997314085739
0.997138421943
0.821313146366
0.821368538645
0.997318280809
0.997118960119
0.822004282566
0.997269904263
0.996947133491
0.825723873387
0.822549814587
0.997093332079
0.997085900526
0.823846513044
0.996063746325
0.996644635467
0.835269903686
0.830211673582
0.996694744219
0.832023373667
0.995967232435
0.995732675283
0.995538377489
0.836652612604
0.835872315774
0.99566634616
0.833602387736
0.995569038012
0.996309016293
0.996634270081
0.827440739943
0.827090748969
0.996694267562
0.99627370729
0.829174063434
0.99616209347
0.996002821754
0.834012164188
0.829547160027
0.996139076466
0.996057005423
0.831235452041
0.99602490925
0.995645070521
0.84440496821
0.838570329547
0.995707440799
0.841362502784
0.996091461056
0.996692196237
0.997585494212
0.847114244332
0.846026164468
0.9974306001
0.843716138713
0.996840043527
0.996448250153
0.996083452216
0.836665773152
0.838145114709
0.996187611345
0.996411744519
0.838901784898
0.996939911849
0.997433975734
0.843286626465
0.840030581779
0.997533651564
0.996943161918
0.840784078688
0.998321864563
0.998091923107
0.851153749151
0.846855151304
0.997970653246
0.847140458086
0.998389567894
0.998436557552
0.998459162364
0.850123927889
0.844384648971
0.998403606422
0.84615929255
0.998496409099
0.998494507114
0.997855706858
0.844323203188
0.841662098238
0.998060337671
0.998230198884
0.844976529975
0.998701421831
0.99877876815
0.843047723549
0.841379776338
0.998692856625
0.998606338208
0.844421201186
0.99825188716
0.998374319037
0.8416270939
0.84207421207
0.99832602208
0.839559146896
0.998257842178
0.998129333107
0.998027847389
0.839236856345
0.836560644221
0.998066555391
0.837884421169
0.998103502482
0.998542036948
0.998769089393
0.841392875903
0.839289608782
0.998633371431
0.998723193245
0.839506613166
0.998397560595
0.998390293381
0.837406525819
0.838867634699
0.998249775444
0.998586324927
0.838450112787
0.997925575939
0.997923002853
0.835312303682
0.835710152198
0.997972784081
0.835201192045
0.997870343089
0.99787416991
0.997723548147
0.83520501699
0.835213178438
0.997779031978
0.835263970611
0.997803206271
0.99793440195
0.998133078548
0.836699177888
0.836964387985
0.998043748859
0.997947446091
0.836039050193
0.997811029837
0.997571616692
0.834243580377
0.835885832108
0.997685375977
0.997749456571
0.835245603467
0.996333702047
0.997307359568
0.835433233706
0.839483327961
0.997380002429
0.837090680729
0.995960902375
0.993138617474
0.989118413726
0.786199831172
0.816166698765
0.813709981408
0.991815852381
0.987531258454
0.996304574983
0.997230488815
0.839541437307
0.834270928747
0.997347704668
0.996283163825
0.83342731174
0.99287298979
0.994626059394
0.812406438042
0.78843732195
0.99349920803
0.786367340189
0.993857572682
0.997895218314
0.998198024569
0.843311096378
0.853312297817
0.9980169241
0.84539253844
0.998041078314
0.997711332158
0.997632012294
0.836866850067
0.834667721151
0.997793077151
0.997568992516
0.839506664379
0.997839054229
0.998050644365
0.855731938284
0.852331669466
0.99795204062
0.848394884338
0.997966456785
0.997650582968
0.997661941533
0.837946847206
0.846821416321
0.997511360055
0.997786906574
0.842650205022
0.997268591675
0.997481542931
0.826783216177
0.832340960039
0.997272504731
0.997424997158
0.830236533726
0.997176678714
0.997165227454
0.826365046254
0.828664200855
0.997202142118
0.997086952211
0.828786685025
0.99716390317
0.99750779113
0.834593564216
0.836421327183
0.997336730148
0.997341491376
0.832415160641
0.997016324643
0.996913753702
0.829917509513
0.834328991701
0.996830156062
0.997160059647
0.831003941466
0.996776159147
0.997116166192
0.825273259451
0.827748300914
0.996962803875
0.996988853958
0.825844963843
0.99650833968
0.99649638392
0.823059937606
0.820805043529
0.996720859024
0.996239405128
0.8232972337
0.99622438613
0.996604854805
0.82836783887
0.828365581656
0.996577446324
0.996214214301
0.826191664085
0.99586133568
0.995446344955
0.822108086127
0.826593223405
0.995558583408
0.995812300913
0.82417305721
0.995964834393
0.996321518427
0.818668540784
0.82001186893
0.996241290668
0.99606128022
0.818957447686
0.995891361071
0.995996429137
0.819405946449
0.821393670528
0.996124813638
0.995886680446
0.819491586933
0.995245001998
0.995137647462
0.821387601678
0.825144951062
0.995265194154
0.995136960708
0.820865114158
0.995280908775
0.995362865351
0.823872049149
0.82691861264
0.995396142386
0.995202711007
0.821659553368
0.995931719953
0.995920168599
0.826615607727
0.824433131087
0.995893001688
0.995887343932
0.828175462156
0.996043951471
0.996122352551
0.829989174367
0.835424216675
0.995941181867
0.996209078115
0.831798748971
0.995881453716
0.995605209385
0.82699998759
0.835379733844
0.995593692828
0.995919500879
0.830822467352
0.996229060008
0.996754099212
0.83742920234
0.838192496691
0.996625117999
0.996307523396
0.834276950065
0.996604384889
0.996380218525
0.840399279604
0.838710312096
0.996610362265
0.996422348029
0.840953491378
0.996738443221
0.996984957595
0.840622092407
0.840623016664
0.996793418933
0.996856976461
0.841120523753
0.997082108518
0.997113412105
0.840523808555
0.842668962828
0.996986874928
0.9971957755
0.842918915434
0.997071340982
0.997188929402
0.842091581469
0.842650723803
0.997065680961
0.997206194536
0.842859314817
0.997179677031
0.997204288353
0.841483942142
0.839526524517
0.997474916408
0.996996924606
0.839269071184
0.997396485099
0.998051145376
0.84117224905
0.839699758303
0.997746608069
0.997634060592
0.839196877754
0.997117600147
0.997126625025
0.840514185398
0.839494259511
0.997068111324
0.997128449073
0.838910547947
0.997223305074