/*--------------------------------*- C++ -*----------------------------------*\
| =========                 |                                                 |
| \\      /  F ield         | OpenFOAM: The Open Source CFD Toolbox           |
|  \\    /   O peration     | Version:  v1906                                 |
|   \\  /    A nd           | Web:      www.OpenFOAM.com                      |
|    \\/     M anipulation  |                                                 |
\*---------------------------------------------------------------------------*/
FoamFile
{
    version     2.0;
    format      ascii;
    class       volScalarField;
    location    "13.95";
    object      p_rgh;
}
// * * * * * * * * * * * * * * * * * * * * * * * * * * * * * * * * * * * * * //

dimensions      [1 -1 -2 0 0 0 0];


internalField   nonuniform List<scalar> 
28582
(
19529.8301312
19529.8692259
19530.0232884
19529.9429056
19530.8842781
19530.0970129
19531.5933407
19530.4657827
1286.17817726
1330.53932591
-0.107512457546
19531.0314175
16848.9492204
16757.1806229
19530.0195275
19529.9301022
16760.1955005
19489.8492173
19482.0535426
19528.758018
19530.3369538
19531.5046363
19528.8956032
19530.2529667
19531.4218856
19529.4696263
19529.4562399
19530.2490072
19529.5856013
1352.76022632
-0.113041204757
-0.0614889153413
19530.2797941
19531.2306027
16951.5482412
16923.6479264
19503.9959488
19529.1463581
19529.2187319
19528.9184514
19488.8503987
16611.3490228
19481.1555025
19479.4752912
1308.14185919
1349.73227305
7.48526721911
7.46512049115
1316.97375047
4.79677740696
19500.0677211
19498.3183967
16811.5683042
16848.2041477
19500.0993572
16803.3523015
19498.4707968
19497.0587749
19495.8820817
16778.3046717
16767.1720873
19495.5291601
16776.545957
19497.2329113
19492.6134312
19494.7037268
16768.9069182
16767.9748963
19493.6293711
16768.4375675
19494.4100631
19493.6566122
16747.9217887
16725.2590878
19491.518069
16762.5196822
16756.5714575
19494.2724287
19480.5402377
16683.9271472
16663.9945388
19484.0169344
16713.8904659
19482.7525113
16725.579995
1253.00369328
3.61633292346
1221.74129448
1243.33709275
3.34735879974
3.59359667772
1371.4182884
8.81778036646
9.16345879023
1390.98129326
8.74488203078
1374.5228402
7.56774264166
19500.4156188
19501.3496193
16951.7036891
16955.456681
19498.3669563
19502.5983351
16956.2600227
19499.1789938
19495.1788911
16940.6307939
16936.8594396
19496.5940797
19498.1830127
16948.3274837
16943.9108965
16920.2481137
19502.424497
19502.361798
16924.2262444
19501.0703346
16938.4404865
19493.4833035
16719.3007494
16675.8550542
19488.5130744
16686.3544164
19493.4744747
16626.3394517
19488.2506943
19491.8432045
16652.5437433
16580.5313585
19492.705564
19487.9328358
16599.5231888
19479.4311877
19479.566513
16643.5577971
16621.718417
16578.663895
19481.310967
16603.2154261
16554.3528968
16539.6057131
19479.5027996
19481.9557611
16569.4058611
19482.0030318
16585.8465265
19529.8944306
19529.1077487
1399.04292089
-0.0665976160903
19530.9697454
16873.3312842
19529.0682649
19529.6217933
16579.5183315
16536.9848125
16553.7051878
19530.4587088
19531.3284341
16558.7372844
16583.6137289
1277.44989596
1411.46965578
1425.96793458
6.9290789307
7.765206173
6.00644996984
1435.72377613
1433.81318435
19498.6926992
19500.6099162
16881.6820444
16821.3727185
19499.7476941
16833.1773201
19499.030167
19485.6587653
19490.6377206
16549.4367294
16559.2595865
19489.1914044
19487.1182471
16539.0352355
19479.8548367
19478.6922996
16561.0408695
16531.3806813
19481.4710414
16543.2621431
19476.8516088
19477.1462433
19469.6095613
16555.9866363
16537.9570354
19472.9207518
16547.7430999
19473.3026936
19470.0123949
19469.5805047
16553.9306088
16570.491897
19469.87984
16554.6759309
19470.3012979
19471.2378625
19475.8660208
16563.7176139
16575.3167049
19473.8978574
16556.8894048
19472.3173575
19544.8297317
19538.9584588
19536.9834307
19534.8016664
946.239105285
1066.84323519
986.846273932
1073.7023847
1046.20124471
-0.103173749243
0.0891297633953
-0.100100635605
-0.0348773265969
-0.176359933071
-0.174941649777
19545.7426746
19544.7306652
17689.4067134
17690.0059813
19547.9331018
17696.4862849
19542.6048992
19539.9697918
17667.0565872
17500.6104071
19545.2002727
19541.3105747
19541.1144236
17670.27787
17635.1401199
17496.7865348
17417.7606319
19538.7272158
19534.644699
17561.2933848
17046.5026274
17348.2335136
17042.3418629
19538.6775171
19537.1743835
17469.8662787
17394.6711938
17392.5712095
19534.1024563
19535.8914982
19533.7915342
17337.235598
17075.0038598
17343.0818145
17143.9044879
17335.1755679
17147.3218698
902.012195914
892.703577105
935.350453497
0.494813987999
2.08546037085
0.307556856187
0.753176672908
6.32859576515
14.6452886084
6.3646233638
15.7718297997
905.065382958
941.909054228
999.896431838
976.609297242
1024.23144466
1.13217837433
2.80179924059
1.91944128914
3.37008192447
1132.46675683
1080.45657396
1138.13435974
6.45332052772
15.41061446
5.72775747083
11.3448043782
1026.31831778
1016.10505392
1.2652594609
1.34564772433
1.36214716081
1129.51269346
1057.66466542
1109.16455273
2.53508030148
4.92249357484
1.60725666006
2.27027648054
19529.9647125
19527.7858608
17685.0418032
17695.9442925
19527.8752888
17692.196426
19529.713206
19529.1327656
19525.693625
17696.6348768
17684.6529533
19527.0663618
19527.8856857
17692.4273425
19530.1770315
19526.1716433
17703.4021733
17706.6155061
19528.0759473
19528.1166039
17714.9445548
19520.7540005
19521.5964567
17652.3656858
17606.3599265
19523.5967277
19518.056343
17598.0048885
19516.4150784
19511.747561
17552.7226185
17491.8218003
19514.285259
19514.459547
17543.5360401
19518.5811498
19522.4893012
17669.2175808
17604.5772979
19523.7750324
19517.8680716
17597.3289285
19519.296009
19526.4837848
17659.8620501
17540.1559138
19524.9887971
19519.4314339
17576.1396956
19514.5012514
19511.9095573
17549.3142898
17485.3426515
19514.0385713
19512.1895203
17537.2182109
19515.0905912
19512.1679498
17472.2841389
17456.9812426
19515.348927
19512.4676583
17510.7823667
19515.8225417
19526.9427734
17441.4651907
17459.7365674
19522.6252683
19519.1496759
17350.2680638
19510.1494203
19505.5616775
17256.814113
17006.1561586
19515.3260472
17183.827867
19501.8885985
19511.7653572
19511.7722573
17401.8303338
17269.740181
19514.9109794
19509.3750508
17309.7874997
19506.8716281
19500.7441767
17028.5069642
17155.9421568
19505.5571871
17177.4989484
19500.0690614
19510.64883
19510.9331862
17457.1735518
17452.4343089
19511.4636282
19510.1252727
17442.1456938
19511.2562851
19512.4067099
17429.6117889
17385.5073539
19511.9356608
19512.2272444
17415.4668339
19511.8354632
19513.4785531
17388.1778934
17418.8110717
19513.4331133
19511.3272989
17416.9518777
19512.9156758
19513.1339254
17269.4729608
17332.9349529
19511.5334922
19513.5395001
17274.4142642
19510.8194259
19504.7366873
17174.8583944
17104.4953082
19508.7522832
17189.2254969
19507.8883527
19516.0215624
19515.6519857
17337.7271509
17286.661739
19515.4900121
19517.0476159
17279.6232901
19514.4092034
19514.7359052
17128.4125928
17214.0866657
19516.2177991
17203.6782225
19512.421139
19516.0383968
19514.8078319
17281.1498067
17324.1796724
19517.0282336
19513.4629895
17267.8239323
19516.8498466
17213.438894
19517.4614692
19528.498235
19528.6662101
19529.456138
19533.2868832
19535.5451156
19547.6752726
19528.7006448
19528.8082219
19529.5894235
19533.073888
19534.9274804
19547.6678481
19516.6851718
19521.7273259
19520.4083907
19527.1096512
19532.9508818
19537.349637
19543.2792556
19525.2031239
19518.0896634
19521.9361525
19525.4313194
19528.5307058
19531.2892822
19533.3658257
19535.2764958
19549.1944657
19523.7342557
19523.8069288
19525.4676633
19527.9069189
19530.4643731
19532.416285
19533.6252211
19548.4068615
19526.9746404
19526.6572385
19527.3468332
19528.9674762
19531.0974973
19533.0792936
19535.0869451
19549.5338071
19530.9980436
19532.887637
19535.1122798
19548.4234264
19513.9268396
19519.1854279
19523.721826
19528.3684646
19535.5946016
19543.3685341
19604.9949407
19420.431949
19516.556439
19521.16697
19527.6784794
19530.6247898
19532.0434854
19533.5980395
19535.6441491
19542.9570666
19522.5049436
19524.1090207
19526.5680891
19528.6878299
19530.4396516
19531.8513985
19532.3648222
19542.8763889
19526.8401035
19526.805852
19527.7724224
19529.4859736
19531.2810077
19532.630265
19533.7484147
19548.5868949
19531.0310163
19532.5960125
19534.2232645
19548.2345463
19510.5630943
19517.0758903
19524.1445477
19526.3366987
19528.8513456
19527.1978327
19517.2676124
19457.9365321
19514.6759015
19520.1798414
19521.8089518
19526.4855508
19528.0049213
19526.4481421
19517.2685713
19509.6553304
19521.7214163
19522.596592
19524.3888106
19526.8812656
19528.2519915
19527.1175477
19520.5370426
19539.0877348
19528.167348
19526.8909342
19526.8327232
19526.9886692
19528.0584928
19529.0844136
19528.6930157
19525.9002287
19544.516496
19529.3574015
19528.9021632
19529.045377
19529.6505895
19529.5515324
19528.4815361
19545.3955251
19530.2203434
19529.7532416
19545.079995
19509.7713584
19516.3063939
19524.1658265
19529.8840225
19532.6031554
19534.7482667
19531.7645761
19508.3211679
19512.1969806
19511.4845267
19515.1773866
19520.6414004
19527.2150476
19530.9060808
19531.7572282
19528.6438149
19516.2571739
19530.609118
19522.7567957
19518.6061077
19519.0442474
19522.9517105
19526.7092336
19529.0342771
19530.5431473
19529.4625159
19529.9827621
19527.8791313
19526.4852535
19526.0678675
19526.4280491
19528.0137747
19529.4100267
19530.0424758
19530.690249
19535.5758433
19530.0536363
19529.3890436
19529.6034805
19529.3865022
19529.4050633
19531.0144771
19536.0927332
19529.8766748
19531.5562642
19535.6682098
1315.7810136
1374.55038748
1460.17094558
1444.82362611
1403.62646749
1412.65741567
1440.2465219
1488.29370944
1187.55037389
1293.19979304
1362.19666072
1413.10861376
1485.88856637
1395.3072507
1419.02805015
1435.66758799
1447.406354
1439.85021192
1176.68425386
1293.59816402
1361.36821564
1365.68402824
1340.96927211
1343.41708668
1376.92567129
1433.63770311
1465.6002972
1457.59576496
1228.76139983
1263.30867921
1268.80820853
1272.79226857
1304.22037391
1359.15091561
1419.89595406
1456.80888424
1449.09428519
1265.04875303
1287.94749452
1290.00015596
1368.30412658
1419.16293119
1439.37565647
1431.87117866
1432.87769297
1432.17704253
1422.23363882
-0.135971704349
0.500970684152
1.34918054016
1.59698038574
0.199553260218
-0.121019029046
-0.0654380342129
-0.061320805189
-0.150594840313
0.317287540223
1.09409652735
1.18801509456
1.29155169978
0.132078226972
-0.0502852161816
1.24640533356
-0.0699021711805
-0.111090758935
-0.134902203125
0.364529253498
0.923353186319
-0.168217686292
-0.190995992116
-0.100108447598
-0.0331636772329
-0.0564403599925
0.964072149359
-0.0966324294482
-0.191423420621
0.532568650809
-0.153791193601
-0.157618626651
-0.0765646503107
-0.0298386988876
-0.0545797404539
-0.050617508032
-0.0793890451078
-0.156088824606
0.562813905778
-0.100983895075
-0.054479640136
0.746973852658
-0.0730213555993
-0.11162269531
-0.165712727974
0.563542021231
-0.0984840823984
-0.179035259782
0.592788374845
19519.4323527
19516.7235771
19519.5069585
19515.6553952
19518.8866032
19515.7480334
19518.7187825
19523.4835379
19521.9021188
19523.8471339
19521.3230726
19518.8130137
19520.8374179
19520.838068
19519.9301427
19520.3800656
19521.0231965
19517.5256238
19519.8067807
19519.7647981
19520.8846494
19523.6637874
19522.3243515
19523.9809114
19521.665941
19522.6834198
19522.5697142
19524.5583358
19517.0850403
19514.4309069
19517.5248642
19511.528294
19515.4418327
19511.962899
19516.1970644
19520.8023623
19519.2917528
19521.6425701
19517.7141292
19519.4464989
19518.4375599
19519.6509
19519.0515438
19519.1051857
19520.6287068
19514.4988216
19518.4228376
19517.6604593
19519.3318097
19522.485232
19522.1650927
19526.8428883
19520.6231402
19518.2270665
19520.8363213
19524.9725224
19514.4432301
19512.2703476
19515.5647136
19510.6127132
19514.0979393
19511.6777986
19514.7222322
19519.0165371
19518.0775659
19520.2864031
19517.366988
19519.836196
19517.7961262
19521.4204949
19517.7975328
19517.2082393
19518.7197997
19513.701188
19516.0844729
19515.826616
19517.2053136
19517.9723716
19520.1091541
19523.3134737
19518.4382729
19519.4900438
19518.873056
19521.8975772
19503.8512099
19507.0187684
16448.3936024
16325.189563
19512.8163836
19510.6266749
19512.8477507
16430.0874314
16320.0579239
16334.5864787
16246.6879584
19520.4842361
19515.741241
19519.5218521
16313.0028296
16421.3382658
16226.4602776
16289.3803579
19527.3875458
19522.7427644
19525.8950831
16473.5848247
16577.2748245
16319.1743947
16473.7515494
19531.3087562
19528.5576749
19530.1560157
16629.4508483
16790.5946293
16524.6957379
16629.0695911
19533.7135811
19531.3182156
19532.089282
16806.0657837
16750.8677752
16627.678381
16621.2866859
19534.4666953
19532.6347541
19533.0571718
16692.2827294
16546.697417
16606.7426179
16567.8300515
19523.158081
19532.5715277
19524.9834899
16515.7542654
16520.3197911
16554.8284186
16493.4155984
19495.171674
19511.3186004
19516.4900681
16705.3491625
16202.6611207
16593.2762059
16199.7801758
19529.6382835
19523.298175
16832.3691752
16433.3710285
16929.6771356
16623.0998961
19510.5893906
19517.9457311
19515.0673277
16380.5240341
16335.993587
16564.1154565
16445.1856219
19513.0512503
19514.1862834
19514.7227275
16329.8270845
16211.8158898
16407.210003
16306.5648209
19517.7736137
19516.4217972
19519.0606348
16196.2702683
16235.6484662
16296.3255091
16390.1580549
19524.1197215
19522.2678452
19525.3959559
16284.8270857
16479.1941387
16442.3387412
16587.0005836
19529.4882236
19527.6129656
19529.094471
16550.9234467
16614.3773311
16620.130309
16635.7096393
19531.6524462
19530.1540625
19530.7863486
16617.138119
16624.5057015
16611.7640381
16580.6133566
19530.9775086
19531.137201
19531.0584631
16612.8743133
16569.3463469
16592.9548221
16606.2572719
19523.7458071
19530.0244749
19527.713595
16559.5230019
16454.99079
16597.5643495
16488.8558753
19535.0335416
19525.1408266
19546.295096
16556.1384768
16238.9921816
16586.649298
16284.2581136
19526.5052501
19531.2428828
19528.4125282
16973.3255419
16690.9891571
17076.2186909
16870.3309559
19520.1381767
19525.9627925
19524.1974104
16623.0457767
16500.6391197
16802.9806539
16716.2544411
19518.1680276
19522.9579233
19522.4685661
16464.734005
16383.3751595
16702.9636592
16715.8476612
19520.7792868
19522.628262
19523.2276214
16385.0579221
16450.2724831
16725.3721198
16698.5633621
19525.054516
19524.4813146
19525.8586711
16496.0306412
16620.8364955
16691.0170252
16683.1934959
19528.0560533
19527.2154098
19528.3157159
16623.8294799
16617.9721308
16684.9812947
16666.4938408
19530.00469
19529.2543913
19530.1007706
16607.8644126
16614.6040207
16665.3370527
16671.1612476
19530.3650726
19530.5610485
19530.3806498
16617.4474106
16609.1515017
16657.888874
16577.5746731
19528.8638354
19530.0578432
19530.8492712
16596.090265
16495.5938298
16554.0839548
16528.8605451
19550.1487109
19533.6041891
19551.1658851
16590.0740888
16327.8973256
16630.5155972
16401.5680755
17090.2073426
16900.5786613
19527.027685
19528.7355059
16847.5277943
16790.1181972
16927.6859253
19526.1397605
19528.7864231
19528.6385825
16781.6002242
16796.5767003
16938.3648562
16922.5179645
19526.0610514
19528.4843526
19528.1554118
16793.5701913
16742.0363567
16896.5925332
16808.955241
19527.1912325
19528.1190178
19528.3702407
16721.8150665
16695.1516476
16793.7447844
16786.9963649
19528.8051389
19528.8575504
19529.0942037
16700.4079163
16692.3370868
16784.3870287
16719.3835685
19529.7475081
19529.3163981
19529.3985547
16672.7409679
16633.9449536
16678.290495
16600.8764425
19530.1754188
19529.7285019
19530.2110828
16627.3933663
16596.7090958
16605.6175113
16616.2958692
19532.2296403
19531.1288296
19532.9782313
16584.1681587
16553.0643963
16619.5925838
16574.9107976
19551.2879966
19536.411097
19551.3812941
16659.5960718
16435.6752047
16692.9826825
16463.9980941
19529.598721
19530.4842371
16887.0347107
16805.9002903
16760.1358326
19529.3936302
19530.1185199
19529.944401
16793.6499157
16799.631192
16761.2900325
16757.8126676
19529.5817487
19529.8502745
19529.6068526
16819.4882418
16720.8153252
16772.3940249
16638.3687296
19529.2558753
19529.3275796
19529.2401963
16676.0403394
16581.821007
16593.6736892
16538.1275055
19529.940288
19529.5213
19530.066332
16583.3905897
16600.8125232
16542.3280825
16561.5307879
19533.0652663
19531.0240766
19532.8866895
16610.667476
16564.4371769
16584.7193913
16521.3987127
19550.4598587
19535.4651677
19549.3486295
16685.8541011
16467.317897
16643.7505074
16457.9782925
19529.2791465
16539.1230466
19530.589464
16543.69629
16555.8605016
19533.2942915
16573.2060581
16510.952367
19548.8011082
16630.6577592
16453.9397257
12.0653458528
10.6409543577
15.4337112024
15.1119422539
1287.06780863
1317.72326912
13.9534224394
12.6460280908
23.717698744
23.1606343779
1343.98896988
1334.92056311
1358.15132321
16.9562701067
21.750710915
29.736057675
36.6925231557
1412.86168693
1400.46508494
1446.20610504
32.9224207272
22.3660970219
38.2872252705
29.1564005265
1471.69871595
1497.23145279
1482.60992081
12.0159399725
7.42945680593
20.6334353023
19.2348077419
1410.83350225
1451.38764724
1421.87619312
5.34837744436
5.64299754845
11.670685037
9.28085393342
1407.98687887
1414.51813813
1417.17063013
8.46374831789
9.80754609187
10.7498532427
9.84773155721
1424.28855959
1422.81148103
1431.10972717
9.94809646526
9.22748089291
9.0269922259
7.61799528036
1450.77625295
1439.52846317
1449.36315341
6.33664586863
3.52857975211
4.60964817903
3.07222261547
1612.58514668
1444.23215553
1576.93816598
3.87210740656
7.72754332625
3.80463295476
12.4052013664
1242.77386595
1186.11965564
1246.96236186
26.5545339914
29.5936838083
24.0941375506
24.2959942185
1332.62643006
1305.86877761
1347.21903103
29.9750333705
28.8738262747
19.9715764481
20.8570657107
1381.08866296
1378.26175689
1395.95788221
31.9813432687
35.6111110106
23.2710101224
24.7367672401
1469.42679057
1407.30059376
1424.8043202
27.5806824527
18.6799685319
20.9537010564
16.5653090589
1454.70342681
1420.52212076
1391.66602709
12.0507134701
16.2398820304
11.4619335205
12.978280963
1394.53322477
1350.0993111
1360.65578625
32.4588878065
19.3053642199
30.7193418523
24.0693442464
1428.93081506
1405.97398468
1430.6095487
9.25905969884
8.50941222701
9.35837868348
6.00358401691
1443.72710893
1444.02535404
1454.76360167
8.11034166435
6.9977185843
5.81361637735
5.63049137492
1456.09795122
1457.94781687
1467.77907517
4.78143797331
3.37203643896
4.78960793012
3.90759723989
1573.42285796
1447.38623957
1568.9003238
4.1265439046
11.3630165311
4.65183588639
9.95389179212
1234.85761192
1155.45463442
1209.56917295
17.5057651978
19.0104405557
12.1060947146
16.1752577602
1333.91375654
1263.61634687
1295.83062314
11.786894085
13.2226054405
10.1159249374
10.9362846403
1372.35126733
1313.25696651
1315.82374807
14.8513342127
15.2715343082
11.7944198262
11.0732206483
1351.21375833
1307.07010855
1294.03138591
14.2872574119
12.620879457
9.99221237561
9.05674766743
1333.97750678
1289.46860979
1297.89086961
11.4847226729
10.6297167749
8.72371345335
8.28730424214
1362.82786566
1318.22186464
1341.89577076
9.68971394432
10.7775639036
7.01403418896
9.62211490617
1401.42526228
1352.70788349
1373.6682565
21.5634623082
16.7284818121
25.4275718812
28.3332316319
1453.36151555
1420.03079368
1451.83891848
6.27035018602
4.68490258161
9.82793969113
3.95383960283
1477.83291467
1467.51877139
1479.35627665
4.62042185068
4.34932984903
3.97460188303
4.05626904708
1565.83844971
1458.97630481
1557.75876211
5.53328659551
11.0520000886
5.70580667339
12.6920571931
1251.11428634
1213.39935871
7.17274196668
7.52084558799
4.41808245661
1267.88669287
1229.24841218
1244.06370162
7.79431750031
7.07398020115
4.64065932882
4.66905899919
1267.43061275
1256.63402071
1264.85257316
6.53504386261
6.12801313797
4.75477081813
4.89438918355
1286.75321148
1271.1595848
1283.52464105
6.17734955938
6.26301785068
5.22554413911
6.15010060336
1326.46820359
1301.83314453
1326.16200557
5.98170857962
7.28789696933
6.56400788178
6.01835685279
1389.03386667
1360.24335931
1390.5822843
7.51218298627
8.22719790495
6.03829743322
6.69673236411
1444.17568552
1416.32452941
1435.15552566
7.42582114743
5.97314993729
6.89695496014
6.86231180296
1472.2354222
1445.57790258
1467.52504974
4.59562982128
4.57936327569
5.6490364374
5.78077879335
1543.84905519
1439.31752469
1528.65141669
5.85123561511
13.081769134
5.79315842867
12.5636433598
1279.75897549
1297.43526902
3.86358346973
3.91412839113
3.81145512416
3.60504862634
1293.93477917
1307.18945274
1315.21349623
4.0522994013
7.7403533004
3.54302534925
8.26195922085
1323.81741333
1306.23669289
1345.61218187
16.555630406
10.9037755863
23.8375607785
12.0921654423
1397.34339479
1386.77891434
1411.52019275
6.77357065563
7.51187842233
5.99800825435
6.75311277965
1434.55869156
1427.22289047
1437.25692712
7.29482226883
7.12909053363
6.57646618742
6.46896526422
1463.52615657
1434.4667733
1460.81117481
5.56504326339
5.99240619632
5.01713726228
5.86631263907
1511.8073257
1428.19253912
1501.00518355
6.34666943066
12.6537515288
7.09245100105
12.8935706112
1420.74696334
6.72129790194
1436.88650396
6.31420069485
6.02299455858
4.8797004064
4.48313709033
1456.71000969
4.60059298182
5.1831166494
3.53990698209
3.48451063614
1492.72438268
6.8260597608
13.1224466324
4.96435709825
13.9484648968
19473.6429863
19476.4847608
16453.1136219
16381.1493716
19470.4924796
16379.5218761
19479.5227073
19468.7554062
19467.4849489
16359.8756699
16313.5389618
19468.90428
19466.8496339
16334.5291238
19464.8590083
19472.7861935
16399.3388927
16375.1457532
19467.9503426
16355.2412648
19468.2623731
19461.6117963
19465.5763663
16369.6244758
16282.6988027
19462.3167304
16326.3288417
19464.9269876
19467.8486408
19467.947035
16362.6141311
16326.4659698
19468.9540448
19467.4431337
16342.5272087
19466.1542274
19463.6213709
16248.6007953
16299.3471867
19465.260517
19465.5480167
16303.7633996
19467.906236
19467.7697098
16326.8762673
16265.277172
19464.7077844
16278.1500278
19470.667546
19470.5032594
19472.8844445
16367.4644222
16370.5079561
19471.4808833
16319.7707228
19473.0604632
19468.5195245
19462.9917575
16232.162164
16235.7462835
19466.3243323
19464.678729
16247.6384306
19470.5162591
19467.1280086
16324.4301986
16261.151479
19470.4836225
19466.6748485
16285.6704429
19458.3107326
19466.9696575
16509.8335969
16412.098409
19467.0229171
16448.7424713
19457.5492037
19454.5491597
19453.9171838
16537.6603306
16523.8335897
19455.1863914
16480.0893402
19452.6535278
19461.6105666
19464.2520474
16360.2593305
16355.2239486
19466.2323649
19459.9797338
16395.1108427
19460.9654551
19458.8804319
16488.2471507
16402.3685307
19462.3364552
19458.0993074
16435.0716878
19464.5309365
19457.4249346
16685.954265
16575.0701628
19457.4766682
16627.8628998
19466.8813786
19477.5756828
19496.2433908
16737.2917086
16715.9663825
19491.7509995
16672.2447891
19481.6217893
19470.5870736
19461.7562453
16538.3982353
16564.8842842
19464.6977796
19468.7702725
16580.4346569
19480.4035407
19488.7605988
16663.1377339
16600.4176987
19491.8767135
19479.1642197
16615.7885445
19508.6990083
19506.3106943
16814.3281458
16731.923141
19502.2011132
16737.3639683
19511.9284055
19510.433318
19511.6402791
16794.7589736
16684.3637332
19508.9109451
16718.6434045
19513.4758755
19510.1069518
19496.9470458
16683.0401316
16631.9183099
19501.9881948
19503.9735155
16695.5303193
19513.6757602
19513.4422175
16658.3919246
16626.508434
19512.8608263
19510.685574
16684.8541723
19503.8235778
19508.5914627
16630.84231
16639.5901695
19506.3296632
16591.2209694
19505.1196431
19500.59052
19499.0328889
16584.7657565
16533.6094435
19498.6967619
16558.944262
19501.1216696
19508.4270208
19512.8411765
16626.3113404
16586.1226735
19510.9014977
19511.5334968
16590.068044
19505.0958689
19504.428164
16549.8564141
16578.104383
19501.7655314
19508.5718692
16569.8042345
19494.57607
19496.738595
16509.8314441
16517.4285437
19496.3234745
16507.6236711
19495.1081181
19492.2412889
19487.9746294
16508.1355631
16508.5057175
19487.8286698
16508.916067
19492.3018299
19494.1324164
19498.8782021
16536.4151284
16541.5880218
19497.2770374
19494.1705141
16523.647622
19490.0917571
19482.7105948
16489.74205
16520.6359832
19484.9087112
19488.7178614
16508.4455938
19449.4738636
19474.9671693
16539.218599
16591.8391528
19475.3671488
16555.1920111
19442.1360004
19379.5383575
19304.379885
15665.6301663
16122.1505137
16129.5844678
19371.5426783
19274.4799463
19449.1308933
19472.3980583
16592.398254
16496.8775313
19474.2253883
19449.3863802
16483.7665564
19373.9380903
19431.5248517
16034.1944212
15636.402171
19386.6299831
15603.91355
19411.8447277
19485.4294311
19495.2856842
16642.0568598
16834.4983331
19486.3833715
16683.0017489
19492.9714451
19478.555178
19472.4758348
16518.5574044
16478.7105025
19478.1894815
19473.5783217
16570.5238284
19486.1567045
19495.5531033
16881.2792362
16817.1396454
19490.3214311
16741.2713667
19492.6537177
19479.5661125
19480.1406669
16543.0372281
16712.5370829
19474.9187348
19484.5094694
16632.0269478
19465.8220212
19468.0510725
16329.1843019
16435.3180508
19463.4913126
19469.3975676
16396.6648325
19463.6718556
19461.5228019
16323.014234
16369.8874008
19461.9338635
19461.8044233
16370.7101339
19466.272179
19475.9810996
16480.3403938
16517.7609153
19470.242632
19472.0993513
16440.1787084
19462.9494474
19462.9580449
16395.3447607
16479.2751296
19459.1424822
19468.0326732
16414.7950327
19456.1681719
19460.8924355
16306.2304002
16353.925889
19458.4794474
19460.0882407
16318.3148366
19451.3957754
19450.7252272
16264.229923
16222.5759556
19454.2487678
19447.1352633
16269.8501136
19447.6518506
19456.9216518
16366.863786
16368.0819749
19454.3478187
19449.3629792
16325.964983
19441.0325823
19435.2289319
16248.5378423
16334.4736227
19435.7604292
19441.8635376
16287.6760335
19443.8542412
19448.4534767
16184.3807892
16208.1142536
19448.5152227
19444.8149498
16189.8952312
19444.4876429
19449.0272416
16201.3805047
16241.1093811
19448.6432762
19446.8053588
16202.6523585
19432.1836728
19430.138518
16235.0668788
16307.7516695
19431.2144723
19431.3278954
16226.2934154
19434.6963661
19438.7092603
16287.0227958
16342.489798
19438.4615814
19434.1193251
16243.1158081
19452.288369
19450.2070714
16345.0551676
16300.9217588
19452.037827
19449.2357658
16373.1621019
19456.3284716
19459.9522922
16409.6039367
16510.7637828
19454.9345819
19460.9459648
16442.3033699
19451.2399551
19444.7798699
16348.0138267
16505.9487126
19444.0662815
19452.2632359
16421.4522605
19459.1566111
19469.8952094
16546.9239464
16559.6349229
19467.762037
19460.7215792
16487.3375157
19470.428109
19465.9906907
16606.0365736
16572.539759
19471.30275
19466.0571749
16614.8942183
19473.6226078
19479.6461567
16610.1370174
16609.3705753
19475.431407
19476.514156
16618.1085549
19478.2932266
19477.2659091
16605.1735765
16644.5075529
19475.4481305
19479.6833901
16650.5247018
19478.971624
19481.124802
16636.1686669
16644.7691154
19479.5803812
19480.7121153
16649.7840776
19483.2952617
19484.2583866
16627.994782
16589.5280872
19489.5578604
19479.5956655
16585.3561165
19487.5542409
19500.1339249
16622.5548227
16594.7095495
19494.6333084
19492.2484833
16584.7141984
19481.5454921
19480.638029
16607.335136
16587.9705604
19480.1964013
19481.271855
16577.693953
19483.871931
19484.9958862
16583.3231788
16574.4206997
19487.7448359
19482.4720046
16572.7608454
19499.5197205
19503.0137326
16591.6176669
16599.0394619
19503.2887254
19496.8717871
16598.534377
19499.04851
19499.8431593
16582.6541327
16589.5485061
19502.2691828
19497.2138385
16600.8133039
19496.8680571
19488.7063095
16596.2018758
16608.7695812
19492.6999589
19491.8588808
16612.2607165
19497.2190985
19490.949109
16595.5172564
16608.5475443
19496.1632938
19491.9855554
16610.447767
19486.4981299
19494.8669699
16542.9264043
16575.6946771
19488.3394705
19492.7165572
16560.6819682
19478.3537966
19472.5003335
16502.2486882
16479.2774005
19480.1398484
19470.7874612
16524.6498347
19488.3385368
19488.6315021
16577.6781634
16580.47354
19493.1489037
19484.5879494
16553.9503103
19481.3174258
19474.2737456
16463.9393262
16537.1903426
19475.2697198
19478.6879721
16510.0086587
19441.0629335
19462.0652634
16478.8525999
16576.2867983
19440.3735592
19461.1357391
16510.713311
19393.6027977
19436.8418217
15637.2628358
16257.8687064
19388.7245568
15703.885707
19441.7103392
19450.6265908
19468.0769886
16567.8631706
16516.4499822
19467.7144967
19452.2793887
16507.0281978
19411.5806443
19461.0507448
16274.6535038
15712.0980706
19415.197401
15716.2290007
19457.4007058
19501.0128995
19500.3295143
16872.9785904
17016.8559183
19496.0447867
16930.0374545
19504.4887682
19496.929538
19487.1277457
16776.0092002
16767.1676637
19491.1887846
19492.9712038
16843.5330385
19507.6619333
19513.2562213
17053.9254859
17014.1258131
19511.4709505
16979.3369734
19510.1900117
19504.4140173
19505.5159084
16823.6205984
16943.4159563
19500.828316
19508.7683266
16900.906252
19484.333281
19482.8799151
16576.2017362
16703.3016589
19478.6622644
19488.6471179
16642.5593644
19479.6758088
19468.1675681
16540.0306693
16564.8740226
19474.0161155
19473.9921071
16599.9032978
19492.3935039
19501.6148209
16754.8970245
16750.2639506
19496.5597597
19497.8997098
16697.5119406
19488.0105969
19489.8941852
16642.3949376
16730.5748906
19483.1898345
19493.9908494
16667.8023936
19460.1847911
19461.2919535
16426.9351254
16534.385354
19453.0571117
19467.3061397
16511.8891957
19453.1401789
19437.9423741
16405.3939646
16499.1656389
19445.0841538
19446.5035462
16499.0851195
19472.023352
19485.1160052
16626.8909518
16700.0135038
19477.7659889
19479.9094337
16612.8622058
19465.9873729
19470.596797
16617.6777032
16706.920824
19460.4107045
19474.6841085
16615.8915053
19443.3987162
19434.0481742
16389.8486028
16504.3360434
19434.5495177
19443.0051967
16511.4006559
19444.9621834
19440.9412535
16413.8129061
16551.7095784
19436.6705638
19448.0639623
16531.680196
19457.4916331
19469.396886
16623.5455691
16723.4789525
19458.0707009
19468.7767376
16623.9534326
19457.888511
19469.5428588
16622.4561614
16716.1576154
19459.2761701
19468.7844333
16624.0940633
19459.8799992
19447.3647065