/*--------------------------------*- C++ -*----------------------------------*\
| =========                 |                                                 |
| \\      /  F ield         | OpenFOAM: The Open Source CFD Toolbox           |
|  \\    /   O peration     | Version:  v1906                                 |
|   \\  /    A nd           | Web:      www.OpenFOAM.com                      |
|    \\/     M anipulation  |                                                 |
\*---------------------------------------------------------------------------*/
FoamFile
{
    version     2.0;
    format      ascii;
    class       surfaceScalarField;
    location    "8.2";
    object      alphaPhi0.water;
}
// * * * * * * * * * * * * * * * * * * * * * * * * * * * * * * * * * * * * * //

dimensions      [0 3 -1 0 0 0 0];
oriented        oriented;


internalField   nonuniform List<scalar> 
92311
(
0.203908434965
4.24495442215e-05
-0.000896405180003
-0.203779319649
0.000725295075443
9.65369545442e-05
0.203857358174
-0.000421642845281
0.000376230744203
0.203960276851
0.000265486726776
-0.00093894617122
-0.203981073636
0.000736930996975
0.000323377624332
0.203801064683
-0.000461132418467
0.000393579184278
0.204063274511
0.000175915648147
0.000273071316375
-0.00108493401909
-0.204488543435
0.000780365051998
0.000217972110458
0.00032840806143
0.000228377561895
0.000187081898232
0.000238526985237
0.203549680338
-0.000474346305115
0.000374803146278
0.000282533978716
0.051252057647
6.5301094788e-05
0.000120443773627
8.65997332997e-05
0.000100947698778
-0.000455738873516
-0.051385118401
0.000391240275857
-0.0510930403817
0.0509459776054
0.000103169136274
8.8555800638e-05
0.000112625710349
8.19741189334e-05
-0.000274448004394
0.000263563471133
-8.77718723634e-05
-0.000476247305291
-9.18509472213e-05
-0.000116431113803
-0.0001210019469
0.000470669293641
0.000672413166785
-3.25826890242e-05
-0.000270634634227
-0.000289707502605
-0.000302660063614
-1.90190364928e-06
0.000212791653256
-8.78790440913e-06
-2.35330495241e-05
-3.02025710915e-05
-3.87191887963e-05
0.000451267686822
5.57949692587e-25
-2.50244607058e-07
-9.59427148276e-07
-2.04415503692e-08
-2.31328810649e-06
6.27375207576e-06
8.32552874507e-29
4.29129776189e-07
0.000119925165508
0.000113346983322
0.000134511484352
9.95479058287e-05
-0.000347775409659
0.000312415945439
-0.000105121293694
0.0103295666843
-1.97118360363e-05
2.84920547137e-05
-0.0103444380592
0.0103717381565
9.90780914882e-05
-0.00013986334082
-0.0103596704466
-5.53958977982e-05
6.27840930359e-05
0.000170665228675
5.46671385023e-05
0.0509075223451
3.63393838056e-05
7.52080432911e-05
5.51047394653e-05
-0.000166325945367
7.29958505208e-05
0.0508376810567
8.91541025379e-05
9.03329706239e-05
0.000105715633896
-0.0508924686813
0.000105905095131
8.53783308746e-05
-0.000115839546634
0.0103765010898
-6.72945893953e-05
7.76521133638e-05
6.4385662418e-05
0.0126491598967
-7.01273773867e-05
5.54734379565e-05
-0.0126439733872
0.0126369383983
5.9153950079e-05
7.78722325133e-05
-0.0126369140619
-0.000328596426538
0.204213266828
-0.00173676834865
0.0014697280111
-0.20361705258
0.203815408071
4.33061603962e-05
0.000146212817301
-0.000147564971544
-6.51049403274e-05
0.203875209988
0.000304417278296
-0.000299166707027
-0.000640440703507
0.204397288337
-0.00174017267267
0.00155958945214
-0.203904763753
0.203789867538
0.000145290943254
2.2623517376e-05
-0.00011349704321
-0.000102946970161
0.203892240923
0.000277789336988
-0.000342692559118
-0.000422910630446
-0.000188768306047
-0.000129404950072
-0.001899523458
0.205026160898
0.00178833195627
-0.204437983036
-0.000376348786946
5.54850511678e-05
-3.48049247768e-05
0.000110727987118
1.43912244972e-07
0.203652128727
3.52489470442e-05
-0.000123958457559
0.05152559337
-0.00014850287644
-0.000187717224932
-0.000157924217694
-0.000176983132627
-0.000566841661047
-0.0513146919429
0.000604439938202
0.050887125144
0.000133143013314
3.74423097611e-05
1.91244707912e-05
1.7131235875e-05
1.82908660941e-06
-0.000132602974877
-0.000325739424381
1.94548451843e-06
-0.000352980798637
4.54966727639e-06
2.33906067989e-06
5.60336592394e-06
4.87648347703e-06
0.000344148173396
-1.10345105164e-06
-1.41761925226e-06
-1.13378184538e-06
-1.02349938603e-06
2.0138545278e-06
6.26127007331e-06
-7.55848125189e-07
-1.37454715727e-06
0
0
0
0
9.79513299793e-30
0
3.12316718521e-29
0.000501831950912
-9.04348222181e-05
-4.19186894261e-05
-9.25460917576e-05
-3.99139590746e-05
0.0515233489608
-0.000423455025158
-5.88351159858e-05
7.57695958498e-06
-7.17542392919e-05
-1.82327404303e-05
0.0514437928578
0.000507404177359
-0.0514377509944
-2.97049303257e-05
0.000248094874371
0.0104281958062
2.92199052112e-05
-5.71435133387e-05
-0.0105259162416
-2.55754803265e-06
3.54390818346e-05
-0.0103478435475
1.53969089908e-05
-3.5711954146e-05
0.0103573805492
-4.89762116273e-05
0.0128692781166
-0.000155651480079
0.000154325418871
-0.0128772296049
7.06126049889e-05
6.67258707625e-07
-2.90249930994e-05
-1.23955338062e-05
-1.80134283649e-05
0.0509238728337
-8.32996874489e-05
0.0508036224376
5.32383294848e-05
4.67903109339e-05
6.8716491251e-05
2.87543801479e-05
8.05648748368e-05
3.22125322457e-05
-5.3285270865e-06
1.25234573124e-05
-1.48150239542e-05
0.0508246924046
2.5197858019e-05
5.05592507867e-05
-5.68505839066e-05
4.36732923746e-05
0.0126500376699
-9.43911897155e-06
2.11185324586e-05
-0.0103940404959
-0.000137559740189
0.0103775788373
0.000158278994065
4.67843835337e-05
6.01521577532e-05
0.0126338895669
-0.0126274319877
3.52061637645e-05
0.012634808529
-2.16659364851e-05
1.22663190944e-05
-0.000267524665096
-9.75212817307e-05
-0.000129269671623
-0.000122330876711
0.000567447717249
-0.000321239043972
-3.21601411648e-05
-3.41413087348e-06
-4.70091653747e-05
-5.78378982561e-05
-7.11651067146e-05
-6.03530289362e-05
0.000313983013969
-0.000146739434797
-0.000217760429872
-1.77308827701e-06
-2.04335056546e-06
4.32288314032e-06
5.14915677337e-07
7.94485483838e-06
-5.06619705978e-06
-4.25092250397e-06
-1.22854255033e-05
-7.10413792948e-05
-0.000118839966388
-9.00538979379e-05
0.000569055853039
-0.000332515586549
-6.94741248718e-06
1.01735452384e-05
4.59163619095e-06
0.000136061377072
0.0128147373047
-0.000141195064406
-0.012850548832
-0.0128072317641
0.000178822319364
-0.000126638652939
0.0127693247505
0.000104797652969
-2.76895162754e-05
-0.000137868556186
0.0103507020801
3.47374938312e-05
-0.000146656603061
0.0103300355778
-0.0103550883026
-8.11907426818e-06
-0.0128455477957
0.000113108160245
0.010352932705
-2.11356057831e-05
0.0127795310303
-0.000129719101528
0.0127362954788
0.000170364487615
-0.000118673391627
0.000100068555378
0.000101464176007
-0.0127451129832
0.0127128353286
-9.64204721664e-05
-4.23729291426e-05
-0.000132369689612
5.04619934009e-05
-0.000181295389676
-0.0103695693366
0.0103789696702
-4.84065699968e-05
0.0127034969558
8.66304870807e-05
-3.20980757221e-05
-0.000117776706629
-0.012669650636
0.000125115218243
-8.42235531519e-05
0.0126553986589
7.5900255701e-05
9.63050716692e-05
0.0126784243443
-8.99370169213e-05
-8.46531950706e-05
-8.85691430559e-05
0.0103797834581
9.43737320908e-05
-0.000159881484261
0.0103771572635
-5.93699207572e-05
8.20656961329e-05
0.0103793314687
-6.95213142738e-05
0.0126622516376
-7.50495778291e-05
2.28925060244e-05
-0.0126505319084
0.0126571677094
-6.26492006373e-05
-0.000102461314576
-0.0103950631805
0.0103886419724
0.000122324657741
-0.0103991227623
-7.24173328295e-05
0.0103907562062
9.18418904606e-05
-7.05024267678e-05
6.49689527903e-05
-9.5406668795e-05
-5.98216320459e-05
0.000107567569769
-7.10943605987e-05
-6.34740543404e-05
0.000106095373948
-0.01263163003
0.0126288644149
4.45527049792e-05
-5.25770192281e-05
-0.0104028294884
0.0103974073856
-0.0104199963968
0.0104212100023
-2.16819390447e-05
5.96490823867e-05
0.000109767718365
-0.0126515779475
-0.000138286960946
5.24669146749e-05
-0.0104119479614
-2.04558685461e-05
-0.0126481391885
4.29169236369e-05
-0.0103882859587
1.06228313447e-06
0.000235201052113
5.20764119207e-06
-1.86228874424e-05
-6.2305819614e-06
9.57013325246e-06
-0.000763206644485
0.000717108434877
-0.00026057663105
-1.36714926776e-05
-3.3153637762e-06
1.60291789166e-05
8.92866111281e-07
-0.000785244000409
4.93029544495e-06
2.33125918585e-05
2.78871900145e-05
2.22399511352e-05
0.000141484586406
-0.000127169261112
0.000569758863176
4.16674469026e-06
1.03344635276e-05
1.77885550005e-06
1.00771373698e-05
-0.000922717529877
0.000223295217926
-3.61753528597e-06
-8.18775854335e-06
1.54432607798e-06
1.06367505182e-05
-9.36355875092e-06
-4.61971844163e-06
-5.34653697327e-07
0.000312238449923
-1.17340799142e-05
-2.94518695385e-05
-1.91688399213e-05
1.66357952252e-06
-0.000229190094091
1.05812565312e-07
-2.86982308967e-06
3.22712902197e-07
-4.63999668304e-06
1.36261730795e-06
1.61178247322e-06
0.000350875576208
3.46291369657e-06
8.95285479651e-06
9.69380660644e-06
7.30155119005e-06
0.000191452691868
-0.000270316082925
3.59132651675e-07
-5.46423410412e-06
5.28749283225e-07
3.55975201689e-06
8.58451954368e-06
9.52933997869e-06
8.27270914104e-06
-0.000365240263818
0.000276082366803
-4.93380359067e-06
1.74798199418e-06
-0.000144401493873
-0.0128916285008
-0.000161160426532
0.0128908891697
0.000160317507129
0.0129105037432
0.000154713331401
-0.000139357803709
-0.0128623139647
0.00016710142681
2.77214615034e-05
0.010369168444
-5.07670572418e-05
0.000231598348039
0.0104157519305
-0.0105068105204
1.48007859843e-07
0.0129066514296
-0.000128788657633
-0.0128456182697
0.000166243835778
0.0103691998789
3.33031809301e-07
-0.000125053547674
0.0128843886286
-0.000100129980232
0.000143367202314
-0.0128991458247
0.000117725896158
-0.000100477717314
0.0128764036743
0.000100664582952
1.61000084479e-05
-3.66094198478e-05
3.18422893746e-05
-0.0103357189362
-2.1011502566e-06
0.0103314216938
-0.000107282845006
0.000135380510726
0.0128593740313
-3.0636506872e-06
0.0103302105305
8.71816931741e-06
-4.54036159517e-06
-0.0103716192245
-2.05282868586e-05
1.15029343663e-05
0.010322671878
-1.1899686284e-05
-0.000149158936665
0.0128494261636
0.000155823373895
0.0128778273047
-7.57617004543e-05
-0.0128848903094
6.62579664547e-06
-0.0103388622339
0.010333064009
0.0128525391197
-0.0103681815232
1.69726996139e-05
0.0126587591461
-5.53465358338e-05
-0.000117366387903
0.0103950188372
0.00013880783854
0.0103998536783
-8.32046795424e-05
-5.03684777716e-05
1.75772727756e-05
0.0126587100047
4.22530533323e-05
-3.42898896713e-08
-0.000123489772705
0.0103941800532
0.00014763764574
0.0126682833096
-5.68709938979e-05
0.0103953188982
-8.87553918408e-05
-3.85505510103e-05
0.0126673377316
8.50008591496e-06
2.35330259176e-05
-0.0126803305747
2.67532793163e-05
0.0126847324745
-3.8382639454e-05
9.44620952611e-06
-0.000134754231306
0.000155479520977
6.88393042094e-06
-0.0103934878115
-0.000106950843358
0.0103772174959
-5.18961308608e-05
1.22711312194e-05
0.0126712698181
-0.000101513400569
-0.0126226350753
5.66914571337e-05
-4.10284601758e-05
2.69741395673e-05
8.88976120801e-05
3.29301904594e-05
-5.92869249324e-05
0.010411471891
0.010437874489
-2.99539195577e-05
6.28183011095e-05
0.0104339347135
-3.42279902547e-05
2.34073790337e-05
0.0126413733553
0.0104126432108
0.0104420370802
7.70666002205e-05
-5.12026856043e-05
-1.52131692387e-06
8.69301934009e-05
0.010432834823
-6.02062084782e-05
-6.78029529963e-06
0.0126371265065
-2.11878424143e-06
0.0126472550434
9.79123017358e-06
1.6952031398e-05
-0.0104129151182
0.0103955208281
0.0126553914836
-0.000113615764645
-9.02669253303e-05
-0.00016051533351
0.000423950681197
0.204103848485
-0.000152746337901
-0.000461304495588
-6.88717329582e-06
-3.17321694953e-05
-3.18503472567e-05
-3.85141602832e-05
-2.15921811261e-05
-2.19085042157e-05
0.0509628112919
9.39368286966e-06
-0.000369135364292
4.03765446597e-06
9.7406738089e-06
9.21195966519e-06
9.75633943621e-06
0.00026108891337
-0.000357388674514
0
0
0
0
5.47198130591e-29
0
-3.55285864927e-31
4.44200270294e-05
2.94690965515e-05
1.17218210339e-05
6.54729891699e-05
-7.08478535723e-05
-0.00043343441533
0.0513411231377
5.96346922289e-05
-5.22245241798e-05
2.36825072839e-05
0.0103132012623
0.0508891403781
-3.57027700056e-05
-1.73658077633e-05
-2.25162884214e-05
-3.66428552908e-05
-4.9342576347e-05
0.0509137355144
-3.19179209183e-05
-4.84876043033e-05
-3.59973672482e-05
-3.90382899659e-05
0.000106045026459
-0.000135905408976
2.09374746773e-05
0.0103645744188
-0.000139962043875
0.000156777345988
-1.26813427933e-05
2.12279296541e-05
9.86815623851e-05
0.0104114371667
-7.53905598202e-05
0.0102962501583
-1.41818563427e-05
5.4448674577e-05
9.5450077804e-05
-0.0103321479478
-8.59713794997e-05
0.0509353929253
-2.6173193132e-05
-4.14294879325e-05
-3.08979155061e-05
-3.75765875903e-05
0.000123987771306
0.000153693331239
-0.000163379903892
-1.75761854683e-05
-2.73592072464e-05
-1.88930686107e-05
-2.89497853319e-05
4.93285278345e-05
0.000204572452678
0.0509575220037
-0.000183233625089
-9.91895022196e-06
5.0796535923e-05
9.40806771687e-05
0.0102657220799
-9.14756626655e-05
-2.45509558979e-06
3.18014537859e-05
0.000102282917376
-0.0102517008254
0.0102562931055
-0.000109655431446
-4.05049114248e-05
-7.83717379427e-05
-4.87010838152e-05
0.000469016699893
-0.000692981688524
-4.50119790856e-06
7.29153256351e-05
2.28318671766e-06
1.05976510458e-05
1.44711466086e-05
1.06675542934e-05
-0.000306967857762
1.81335814227e-06
-8.09869210361e-07
1.02947787104e-05
1.42414721785e-05
1.03744542253e-05
0.000397837822627
-0.000374475074682
-3.15784517568e-07
2.077141434e-06
-3.46057392851e-06
-4.66115039877e-06
6.55853466113e-07
1.49860206259e-06
-3.14300109126e-06
2.53228515514e-08
-0.000106948312445
8.45368140337e-06
6.49825190931e-06
5.56502829609e-06
0.000374099744895
2.26287829277e-06
-0.000322451298737
3.13267175951e-06
3.50170133625e-06
3.27988724642e-06
0.000219219934183
3.85967984551e-06
-0.000219202385681
-0.000184783430336
-0.0128300625369
5.48288491418e-05
0.000129352073607
-0.000110424536349
0.0128006120197
-0.000136995266053
0.0128216000806
-1.31731656627e-05
0.0103241948859
9.81000255059e-06
2.46177392555e-05
-9.87581905975e-05
0.0103348001616
-0.000116387925263
1.32118213194e-05
0.0103487084079
0.0127875256132
-4.72393778062e-06
-0.01267688234
-2.05691917433e-05
-1.24993965393e-05
0.0126826209713
0.0126904993583
1.38022782026e-05
-3.01740658975e-05
2.61467217563e-05
-0.000138259461676
0.000153902766073
0.0103546995738
9.44084853063e-06
0.010364805758
-0.000114997770209
-2.0447143648e-05
0.0126936445894
-3.71853488552e-06
-0.000115602640036
0.0103487781414
-0.0126619185243
-3.27206180894e-05
-2.21807828194e-05
0.0126679639485
1.08247377138e-05
0.0126474134554
-1.7156592555e-05
2.1722470722e-05
0.0103798517359
0.000102824359301
4.41587423685e-05
0.0103732961331
-8.34317477323e-05
0.0103563548463
0.0126598670743
-2.74624397608e-05
0.012679519505
-3.69151911872e-05
-3.2265054107e-05
2.4178966959e-05
3.6961702285e-05
-0.0126746553129
0.012678703203
-3.70102586484e-05
3.70218432291e-05
-0.0103259608649
0.010296161409
0.000105086791718
9.96723401159e-05
5.17675610539e-05
-8.4610228279e-05
0.0126816631296
3.36227549572e-05
0.000111369324676
-3.54574738371e-05
-0.012684453483
-2.73945659148e-05
-4.16408978944e-05
0.0126770069661
4.72974109954e-05
4.03949485147e-05
0.0126846281249
-3.93833253337e-05
3.76583609364e-05
0.0102762940101
9.73472395039e-05
9.30444253145e-05
3.51242285284e-05
0.0102551990397
-9.38009421979e-05
4.16528748966e-05
0.0102744297491
9.17269162936e-05
0.0126759033499
-3.80233303453e-05
0.0126748814863
-2.61882438273e-05
-4.07684912549e-05
5.03404596369e-05
4.1674315995e-05
-0.012674300128
0.0126739832897
-3.58760639747e-05
2.91522258459e-05
-0.0102792709171
9.26735872651e-05
0.0102884010755
9.60931826291e-05
3.24376458454e-05
-9.93925040075e-05
5.34973176884e-05
0.0126740924231
8.92007132779e-05
-3.62825503066e-05
-0.000560568803096
-0.0495173668327
0.0493445614133
0.000635605941901
6.95016545233e-05
7.00201248457e-05
7.6943951566e-05
6.17156172485e-05
-0.000180574976001
-0.000639227267325
0.049852788097
8.91682696877e-06
1.41247344297e-05
1.1119053289e-05
9.85754785392e-06
1.21489580875e-05
-0.0498671872231
0.000597403955916
-0.00101615163888
-0.0499421833641
0.050034239878
0.000864839053716
-8.23884727878e-06
-1.64845294004e-05
-1.25795873038e-05
-1.16854972285e-05
0.000108242001069
-0.000710236491359
-1.90826492369e-05
-1.46086893781e-05
-1.35808122516e-05
-1.76347692523e-05
0.000155956770233
0.0501633837489
0.000592015887807
-0.0501362419158
-6.395180311e-05
-0.000112284229803
-0.000267851422072
0.000416399571917
0.000192080224111
-7.55832009088e-07
-5.644230571e-05
-3.87249579561e-05
-4.4006000666e-05
-4.5751115773e-05
-0.000564046745727
0.000635910779829
0.00028052693492
-3.65446371736e-07
-3.97631668652e-05
-3.09046173863e-05
-1.81295242567e-05
-0.000196645466589
-2.38615505068e-05
-0.000165166253471
0.000347554013497
-5.88898112011e-08
-1.49833616839e-05
-1.00014278902e-05
-4.68455636999e-06
-0.000232347591068
8.67568047365e-05
-9.04233694717e-06
-0.000199020624525
-0.000480147839312
0.000626895150604
0.000105720689101
-1.71292282451e-08
-1.78051527604e-05
-1.62665338685e-05
-1.94708723606e-05
-1.38662767856e-05
-6.22877083944e-05
-1.73430621207e-05
-1.79122474887e-05
-1.74485982574e-05
0.000569092115342
4.92572717083e-06
-1.99679119687e-08
-0.000454395070848
0
6.67216268052e-30
0
6.97306547063e-09
0
5.59331513221e-09
4.29841704305e-29
-1.25663806028e-08
-1.24373990991e-07
1.45617301766e-07
-3.46772219225e-07
3.59800050118e-08
-3.10601396177e-07
3.43628658055e-07
-7.75320577032e-08
0
1.31154613277e-28
0
0
0
0
-4.9083302967e-28
-1.04432565932e-08
1.79293985945e-08
-5.61144594399e-08
8.11116529028e-09
-4.45518331075e-08
3.14918076537e-07
0
0
0
0
-2.09500500232e-28
3.19492380637e-30
0
1.24885794362e-09
-2.10665621435e-09
1.76949961605e-09
5.25361134174e-09
2.7135470639e-08
-2.40792076964e-09
0.000205922321921
7.10199442638e-05
7.20387354762e-05
7.4739446865e-05
6.61015490649e-05
0.0492219595841
-6.05899225552e-05
-7.85193269023e-05
-0.0495728540826
0.049189764155
0.000359296773851
7.18311466116e-05
8.39588050434e-05
7.7709446181e-05
6.76778508493e-05
-7.3216000894e-05
-0.0495712844626
4.68963727035e-05
-8.93233239148e-05
-0.0115440378404
8.98315410288e-06
0.0115497358945
1.07619102505e-05
0.0115582673361
6.28460821024e-05
4.77958396159e-05
-9.59114422413e-05
-4.48501374774e-05
-0.011545807559
0.000100206101553
8.63492165976e-05
9.74786971017e-05
9.84983972355e-05
-0.000339598264672
0.0122818737383
0.0122128208165
0.0121791803563
0.0121598165697
-0.000247524407193
7.47526565007e-05
5.95238387834e-05
-9.24652782913e-05
-5.36772910774e-05
0.011551768388
0.000434860515267
5.8645836263e-05
7.72353481698e-05
6.48644035934e-05
7.121648691e-05
-0.000150021355532
-0.0497149406889
0.0496793364038
4.81288760799e-05
4.88509341832e-05
5.70609816676e-05
4.09035127922e-05
-0.000136062474491
-0.0497965310844
0.000493123551738
0.0115638712355
4.49425415413e-05
-9.25643435709e-05
-0.0115450998231
7.46928020761e-05
0.0115983251413
1.74202621415e-05
-5.29652815286e-05
-8.8938138314e-05
-0.011573529201
9.22657345238e-05
0.00087229273746
6.87701610227e-05
8.07452842414e-05
7.99114071568e-05
6.96205159676e-05
0.0491840619541
-0.000200734728309
-0.000163424656131
-0.000191207067939
-0.000156364505274
-8.98856885947e-05
-6.6033024962e-05
-7.72089003858e-05
-6.60554659557e-05
0.049571660486
4.23855693889e-05
3.55031930834e-05
4.39388906885e-05
3.39026046667e-05
-5.16927526756e-05
0.0496508547827
0.000813775503407
3.09468805824e-05
1.66791508996e-05
2.68395727324e-05
1.89621784827e-05
-0.000114097635366
-9.0848173433e-05
0.0115604140287
8.74717803001e-05
0.0115372031649
5.94433260565e-05
-7.77938835103e-05
-0.0115524715384
0.000138766734878
-0.000120792064827
0.000106220658971
2.57670566793e-05
-4.19053513546e-05
-0.000105717738363
0.0116087729985
0.0116261575361
0.000134603065984
6.78979522238e-06
-2.4764647253e-06
-0.000143097395905
-0.0116247159108
0.0497772739586
8.48138159925e-06
7.72387850889e-07
6.7500109156e-06
4.00515902522e-06
-0.00108273692326
-7.97118137807e-05
0.00121591357022
-7.70230183621e-06
-8.88234826321e-06
-8.08847978216e-06
-6.40183738058e-06
0.0502972571917
-0.000184392324251
-0.00152022750387
-5.75903004679e-05
0.0115252833423
0.000159927424638
-0.000150592632047
7.29194342186e-06
-3.35322059322e-05
-0.0115336567065
0.000227189496435
0.0115566783919
-0.000241293352265
0.000136913498234
9.02266876429e-06
9.75212401859e-06
-0.000151518767573
0.0116155009219
0.000142182726725
-5.63070512306e-07
3.4134605348e-05
-0.000171286854928
-0.0115839911374
0.0115644445842
0.000722719825474
3.15913433614e-07
1.73870018875e-06
2.15629957966e-06
3.62352087957e-06
-6.19450909325e-06
0.0500703163273
-1.9131705731e-06
3.05047429609e-06
2.18011918613e-06
-6.16048518458e-07
2.24934482542e-05
-0.05000540036
0.000632581431237
-2.63792407604e-05
0.0116286544023
9.58563465936e-05
-0.0116200372246
0.011635036227
1.31518515354e-05
1.6620558241e-06
-0.0116390108683
0.000119654528011
0.0116462867741
2.19699656193e-05
-1.20639496949e-05
-9.90507299189e-05
-0.011660787108
9.01466106218e-05
0.000962478645016
-2.03309064392e-05
-3.0328141091e-05
-2.5012668579e-05
-2.46190784004e-05
0.0502650836978
0.00012293918689
0.0501334236194
-5.55142142432e-06
-9.03928711951e-06
-7.93639785014e-06
-6.9645758743e-06
0.00012098088366
-1.81457984883e-05
-2.45175522751e-05
-1.86434820713e-05
-2.51989761573e-05
0.0502626668148
0.000744563231017
0.000175180035873
7.72120541045e-06
0.011623945128
0.000121488133109
-4.63509538072e-07
2.66737597281e-05
-0.0115855430042
0.000127015168986
0.0115660441134
9.5207213858e-05
2.2795390071e-05
-1.21664102088e-05
-0.000101847577219
0.0116294539423
0.000111999936757
1.60630388199e-05
-3.8692261981e-06
-0.000112862202542
-0.0115940737629
0.01157098616
-4.66015365419e-06
0.0116287836497
9.13995047202e-05
-0.0116454279095
-2.35056291159e-07
-0.0115886499016
0.0115608835506
1.56096737486e-05
0.00011176244612
-2.31851610195e-05
-3.78618793325e-05
-5.77942120044e-05
-5.0974103046e-05
0.000318329429821
0.000114470755583
-0.000183011159175
-1.29099221751e-06
0.000321251955512
6.49384638192e-05
-4.65945236004e-05
-3.97018114474e-05
-4.17296723195e-05
-0.000190425702509
-1.14771473139e-06
-9.68176406654e-07
-7.06496122756e-05
-5.76587066949e-05
-7.03766117043e-05
9.88836782716e-06
0.00048925888615
4.13129052889e-07
-8.06635062886e-08
1.09720312582e-06
9.90930364263e-08
-5.22083893718e-07
-6.93224002918e-09
4.02839662086e-07
7.1181766654e-07
-3.38304135789e-09
4.39191198759e-07
-9.49372670889e-08
-5.08367646342e-07
4.67165842109e-07
-2.71459874957e-08
6.380544957e-07
6.73621470187e-07
2.11633894836e-08
1.15991377426e-06
-1.26271949932e-07
2.70783289163e-07
1.36853801803e-06
1.91789333758e-06
-1.19262430299e-06
8.75795734016e-07
-9.02751255771e-08
9.6759744735e-07
-1.0158221154e-07
2.10190288401e-06
1.45488432249e-06
0.000129314084683
-4.02735853428e-05
-3.1182211949e-05
-3.00839211189e-05
-9.13858641e-07
-0.000144032237422
0.00022346422722
-3.12745069414e-05
-1.76912321576e-05
-4.22600611114e-05
-0.000102583498
-4.74701752762e-07
0.00013466026222
0.000260934983079
-4.73587740483e-07
-6.62169308189e-05
-4.26769205486e-05
-4.67207579419e-05
-0.000163446124428
0.000353650447578
-2.42772723698e-07
-3.66361629891e-05
-1.3767239205e-05
-2.54906653428e-05
-7.34813269863e-08
0.000498624108434
0.000188428519063
-2.28956135182e-05
-1.37864615015e-05
-3.25226036563e-05
3.83015022565e-07
-8.18380008688e-08
-4.39312997067e-07
-2.20523481597e-08
3.68987820807e-07
2.10755081417e-07
-5.51545726738e-08
-2.9364723394e-07
1.63115938035e-07
-1.57848441558e-08
0.00022705114842
3.77460754315e-07
-1.67870368161e-05
3.21949643101e-07
-5.22406167152e-06
0.000577669721729
-0.000177927340589
0.00062472355462
-3.81714036399e-08
-2.47942241847e-05
-8.05611967236e-06
-2.00305084619e-05
1.61164760849e-06
0.000162779312066
2.13236248586e-07
-3.96412630539e-07
-2.38948766937e-06
0.000632044387695
5.37251246718e-07
-3.41508228621e-08
-8.58665338053e-08
1.34632428266e-06
1.63924758675e-07
-1.68278537278e-08
-6.78721616314e-08
6.7758059766e-07
8.85984098148e-05
-2.07458615155e-08
-1.24598625571e-05
-1.28881398361e-05
-1.07134691434e-05
-4.78633879849e-08
0.000490836568672
-1.92582780223e-05
-1.92643623993e-05
-1.32098056513e-05
-0.000364798099218
5.18270236331e-05
1.21739092379e-07
-1.7318564699e-07
-3.19075675245e-08
-1.30835303312e-08
8.58352066176e-08
8.35655687256e-08
-9.67330413183e-08
-1.39634277433e-08
8.24430509016e-05
1.18965689643e-06
-1.08943638906e-05
-3.27168335073e-06
-2.0798613626e-05
0.000690041556524
0.000622007579716
-3.18262118162e-08
-2.30157925075e-05
-2.06756460901e-05
-2.50003185063e-05
3.52333624709e-07
-2.13920769146e-05
-2.20574359343e-05
-2.02957610261e-05
0.000699443152764
3.56698630628e-05
9.05922033819e-08
-1.49271931589e-08
-2.20418918251e-08
3.56480694658e-07
9.17580753724e-08
-1.73421301833e-08
1.5538873876e-07
-2.3707036915e-08
0.0124384629346
9.03203115965e-05
-4.10963997715e-05
4.92830217601e-05
-0.0124661795589
4.92493262825e-05
-0.0124322638825
0.0123945407952
-2.89537285773e-05
7.49347935179e-06
-8.00048694723e-05
9.85904554803e-06
-0.0115331542735
-9.69337889887e-05
-0.0115409807264
2.42300633228e-05
0.0115495432
6.31728885562e-05
0.0124020261813
2.04905538634e-05
-0.0115284434585
-2.44227113118e-05
-0.0124630266911
0.0124425039499
6.43291475767e-05
8.52439669965e-05
-0.0124710679161
-7.87948059588e-05
-0.0124503264969
0.0124252928619
9.17785257039e-05
-9.24628950869e-05
-0.0115424259237
0.0115526340452
-8.05811377435e-05
-3.74107524343e-05
5.2542582875e-05
-0.0115323231478
0.0124119520744
7.81902872253e-05
-0.0124772020427
-0.0115301058879
-0.0123828518698
0.000108975898377
0.000106879507338
-8.80356397189e-05
0.0123546009754
-8.75851553679e-05
0.0123987553941
0.000107722267884
-0.000105444263771
0.0115490048723
-3.27893738117e-05
-9.70864648718e-05
-6.43444196362e-05
8.99966565695e-05
0.011551836836
-6.68723853478e-05
0.000130130864004
0.0123783326685
-3.84146662214e-05
0.011541492236
-8.28890932284e-05
0.0124813922746
7.03606919935e-05
8.8859258786e-05
-0.0124992326384
-0.0124676325292
9.7103619105e-05
0.0124468242899
-7.98921003096e-05
6.44668471236e-05
-0.0115284073855
-7.94191344205e-05
-0.0115486188454
8.90374905062e-05
0.0115710737296
-0.012487480271
0.000105115539777
0.0124648705852
7.77201911507e-05
-0.0115344848941
0.0124958421797
9.14557715675e-05
6.24986296522e-05
-0.0125130947054
-0.000110442522857
-0.0125112293441
0.0124994099442
0.00011775549348
-6.61540489485e-05
-0.0115495735988
0.0115776186914
-4.55123374482e-05
-7.37028588165e-05
-0.0115576375761
7.77017186609e-05
0.0124811117825
-0.0125246932738
0.000100085826427
-0.0115386457469
-0.000135147272581
-0.012442838806
7.71904466551e-05
0.012425941591
0.000144009979382
0.0124213880037
0.000112042215109
-9.27746040608e-05
0.000106342364961
0.0115655963505
-7.42210281039e-05
0.0115790631023
0.000104878409796
0.0123999836236
0.000121267164316
0.0115867493584
0.00011988126265
-0.00016053875316
0.0124167187028
6.83947426005e-05
0.000169579200609
-0.0123857571706
0.000190354666044
0.0123800620311
-0.000182763254746
-8.54505826523e-05
0.000120496437012
-0.000102815234172
-5.8193503906e-05
-0.0115784231186
0.000152609862731
0.0115670248352
-0.000152801693254
0.00019979549932
0.0124177517816
0.000136801589261
-0.0124644167503
0.000148675120149
4.6023377603e-05
0.0124559612765
-0.000126539439142
0.0124863901175
0.000132892337084
-5.5189576078e-05
0.0115897904608
-3.06128835103e-05
-0.000120074082794
0.011623551168
0.00011901297716
0.0124828343122
0.000155473418453
0.0116044978616
0.0124520080154
0.000171954777631
3.21935820638e-05
-0.000199479718268
-0.0124828511949
0.0124915464775
0.000205044146648
-2.01867509443e-05
-0.0116019286022
0.0116003463783
-1.22730440155e-05
-0.000132095463567
0.000127132957683
0.0124584374938
0.000178708332999
-0.000247924664255
-0.0124229252567
3.02191225567e-05
0.0124401815158
0.000262332451997
-6.2153147958e-05
0.0123844103385
0.000218482141616
-6.98761479886e-05
-0.000210914851564
-5.68359652558e-05
0.000185248077839
0.0115242546014
-0.000180389831762
-3.7527623703e-05
0.0115533113534
0.000168340278452
0.0124041565025
-7.81905212841e-05
-0.000246390693537
0.000230571552895
-5.57144291752e-05
0.0115519110035
0.000187200855248
-0.000276443956553
5.8281770205e-06
0.0124893525647
0.000293794047433
-7.2445104045e-05
-0.0124609046945
0.000308243674625
0.0125336082975
-0.000309872889268
-0.000104590898797
-3.41920063224e-05
0.000207862480617
-0.000214052421875
-0.0115475006455
-6.96320398101e-06
0.000212170811711
0.0115559807513
-0.000272250245837
-9.51259287146e-05
0.000200152607379
0.000321889808664
0.0125479885881
-7.92615883493e-05
-0.012462899768
0.000257771693469
-4.93499170456e-06
0.0124804876554
-0.000229848351618
0.0124968469808
0.000234928252224
-2.55496887434e-06
0.0115853985368
1.07932724674e-05
-0.000160403536844
0.0116025514988
0.000142919003096
0.0125105180197
0.000258483501313
0.0115761602617
0.000281025552534
-2.72310042399e-05
0.0125127240198
-0.0125304139082
-0.000300409811644
0.000292610080837
0.0125631045589
-0.0115676709257
3.17450759573e-05
0.0115609688136
2.84142391175e-05
-0.000166339051644
0.000142390758789
0.000280828152707
0.0125595500605
-0.000151572382044
-0.0125274140292
8.89961896915e-06
0.0125286941405
0.000150040854788
0.0125078379818
0.000130622078853
-0.0125180986226
-1.67232462386e-05
0.000107458356123
0.0116389220456
-1.68381617731e-05
0.0116518043731
-0.0116430173
9.16092542535e-05
0.0125060535342
-0.0125347683302
0.000130572639356
0.0116610415845
0.000100550514349
-0.000175031300942
0.0125338141821
-4.73549633553e-07
0.000170679628157
-0.0125105116932
0.000197066072245
0.0125219185829
-1.43965769406e-06
0.000113833861247
-2.27562001498e-06
-0.011654520997
0.000108324314492
0.0116440149732
0.00018781608622
0.0125444958596
0.000104016072836
0.0125517647565
0.000160061587177
4.98752890628e-06
-0.0125480425991
-0.000173013345338
-0.0125638118784
0.0125693558545
0.000158186491317
-9.42357342463e-06
-0.0116611513612
0.0116468112492
-8.8444035762e-06
-9.60766527728e-05