/*--------------------------------*- C++ -*----------------------------------*\
| =========                 |                                                 |
| \\      /  F ield         | OpenFOAM: The Open Source CFD Toolbox           |
|  \\    /   O peration     | Version:  v1906                                 |
|   \\  /    A nd           | Web:      www.OpenFOAM.com                      |
|    \\/     M anipulation  |                                                 |
\*---------------------------------------------------------------------------*/
FoamFile
{
    version     2.0;
    format      ascii;
    class       surfaceScalarField;
    location    "5.4";
    object      alphaPhi0.water;
}
// * * * * * * * * * * * * * * * * * * * * * * * * * * * * * * * * * * * * * //

dimensions      [0 3 -1 0 0 0 0];
oriented        oriented;


internalField   nonuniform List<scalar> 
92311
(
0.202624206118
-0.000198006838468
-0.000118477832388
-0.202380716931
7.30527309962e-05
-0.000286698519076
0.202759357701
0.000549477616052
-0.000397750845122
0.202552955571
-0.000390159722533
-0.000114533456267
-0.202308276069
6.19845329513e-05
-0.000661390654565
0.202809495088
0.000554109912787
-0.000435864499343
0.20232911741
-0.000152765624724
-0.000183486464882
-2.73216501864e-05
-0.202104360498
3.12623361917e-06
-0.000113342918151
-0.000141174878262
-0.000279229276112
-0.000399816319859
-0.000388683721369
0.202881963031
0.000591277630191
-0.000484456013557
-0.000253409436083
0.0505048618557
-4.54038510334e-05
-4.43846386048e-05
-4.4575976653e-05
-4.34925822241e-05
-4.08400404457e-05
-0.0505172400287
7.82967464111e-05
-0.0505340328783
0.0505984591458
-0.000105256054444
-8.28195843468e-05
-8.28043329271e-05
-0.000100490734013
0.000124481832461
-9.67399389375e-05
9.14889876808e-07
0.000571637814912
1.44046195367e-06
1.14935240502e-06
1.4557823776e-06
-4.98127220755e-05
-0.000672966774264
3.99762499904e-06
-5.54313109431e-06
1.25280383712e-05
0.000158554627167
4.24798764952e-06
-0.00020293895205
1.63803273742e-05
1.7179904103e-05
1.3363422365e-05
1.38450182575e-05
-0.000138600800739
-2.70457105091e-08
-8.48465580462e-07
-8.43231910073e-07
-8.28842353052e-07
1.37424276884e-08
5.39633671066e-08
4.34769437806e-08
-6.25049625054e-07
-5.95952241228e-05
-6.34838944315e-05
-6.47104621852e-05
-5.83604401796e-05
4.89951398005e-05
-1.54997198396e-05
4.72084452397e-05
0.0116143333765
8.33460518226e-06
-1.0560304174e-05
-0.0116485893508
0.0114883226756
-4.43789247013e-06
7.3633231285e-05
-0.0115365172625
1.5705103787e-05
-8.96154645979e-06
-0.000175869181006
-0.00014599181565
0.0507157973558
-0.000138737048584
-0.000122448975032
-0.000117556787986
0.000183510976075
-0.000157962994183
0.0506510219298
-0.000159525375473
-0.000128547983433
-0.000120322479835
-0.0505082568434
-0.000140883717458
-7.55350444449e-06
8.72126510768e-05
0.0114344574809
9.14464374202e-06
-4.07680871086e-07
-6.34207243628e-05
0.012663622778
5.57545552194e-05
-0.00016010959837
-0.0126411720372
0.012657800792
-6.02209631559e-05
-0.000186928709876
-0.0126311490121
-0.000145236611328
0.202871515457
-0.000881948077026
0.000739613509861
-0.202584092759
0.202801311433
-0.000303555971315
0.00105573204651
-0.00079401137221
-0.000159098177256
0.202661028475
0.00131436080019
-0.00101489626946
-0.000205057022887
0.202841976958
-0.000920113919476
0.000738544863748
-0.202600772435
0.20294582702
-0.000693830383592
0.00104854489706
-0.000794581535444
-0.000364236057243
0.202806787001
0.00134499282956
-0.00100084095993
-8.39125065452e-05
-5.45003757765e-05
-4.10503832882e-05
-0.000731950089414
0.202623101905
0.000648755152337
-0.202490420006
-7.51582393517e-05
-0.000373193772938
-0.000383115367572
-0.000363637857229
-0.000369325223726
0.203393295216
0.00124619345459
-0.000962211069177
0.0506242019167
-3.16685259202e-05
-2.12407515322e-05
-2.60597166635e-05
-2.92809511576e-05
-0.000169982131212
-0.0506026999218
0.00017286181665
0.0508987354854
-0.00021985483692
-0.000134808331014
-0.000128835285854
-0.000146772035899
-0.000141631809753
0.000215864992631
0.000228713500376
4.19479926965e-06
-0.000155257178417
1.78368486295e-05
1.75254357085e-05
1.8793220864e-05
1.88747544494e-05
-0.000231273184249
-4.34930375353e-07
-2.807231191e-07
-3.60598227856e-07
1.0015308555e-08
7.84157064133e-08
-2.72392530927e-08
3.08536025769e-09
-3.15132132525e-07
9.25173452471e-08
1.2594853619e-07
4.14198988347e-08
3.7487704939e-08
6.30756742955e-08
-7.31828234186e-08
2.29986158143e-07
9.67814526983e-05
-3.36135789362e-05
-2.5637449646e-05
-2.86578380649e-05
-2.94841837799e-05
0.0506690341792
-7.87336089478e-05
-2.84799580564e-05
-2.22281843172e-05
-2.99162667717e-05
-2.20707680503e-05
0.0505933947669
0.000121357879441
-0.05055637255
1.01951328331e-05
2.20438868857e-05
0.011664811897
5.80091753363e-05
-8.0671708765e-05
-0.0116704115292
2.02117022664e-05
2.96849501936e-05
-0.0116250746103
2.66325999942e-05
-4.63632225855e-05
0.0115964545642
-3.3754340978e-05
0.0126319738217
-2.3651627852e-05
2.83654895366e-05
-0.0126312636949
-0.000259658888051
-0.000127153947145
-0.000118434117598
-0.00012338755765
-0.000122624349147
0.0509913398334
0.000275634792563
0.0508626706927
-0.000145197255333
-0.000161289347266
-0.000147059426159
-0.000152909414736
-0.000188521861096
-0.000136107315307
-0.000124326039499
-0.000127858454158
-0.000118088064933
0.050967455
-0.000227302961229
-6.98979070667e-05
6.08392362546e-05
-0.000154493143385
0.012693195814
-1.60754419343e-05
0.000130949984196
-0.0110502471304
-1.49413615593e-05
0.0110038268142
1.72318301479e-05
-6.92207454699e-05
-0.00017705674922
0.0126899875015
-0.0127192514121
-0.000174452300401
0.0127528982
6.71937198673e-05
-6.09071822949e-05
0.000401705841405
3.19060238463e-06
4.16172782994e-06
2.57167889519e-06
-3.43911056902e-05
2.02179752885e-05
4.98464396618e-06
4.7427509816e-06
1.85452851361e-05
2.09058328177e-05
1.50898979338e-05
1.50375421778e-05
1.30016318194e-05
0.000186358860962
-0.000230160340129
-1.42436440224e-06
-1.16397021972e-06
-4.51442147674e-07
1.9945598221e-06
-8.24307302568e-07
-1.48420562092e-06
-2.72146441537e-08
4.85949654936e-06
1.05282308563e-05
7.56059119955e-06
1.08444757635e-05
-6.79035593988e-05
8.4798027524e-05
1.32219185264e-07
-2.06260059561e-06
8.12692412485e-07
1.65333832687e-05
0.0126140547615
-7.46222148395e-06
-0.0126210829156
-0.012605038399
-5.30726505762e-05
6.21838537745e-08
0.0126036503621
1.05260159639e-05
1.36959506526e-05
5.14170230832e-05
0.0115749907862
-1.22116443603e-05
4.98517029833e-05
0.0116282556182
-0.0116634988254
8.537047034e-06
-0.012609885153
2.69111442387e-05
0.0115882452647
1.37720839708e-05
0.0126137991012
8.57739750985e-06
0.0125946749755
-5.92624230526e-05
6.00658169059e-06
3.44278106003e-06
-1.85547422299e-05
-0.0126059016149
0.0126106446355
2.47127545421e-05
1.68461334843e-05
5.87394071363e-05
-1.29696000647e-05
7.49441445631e-05
-0.0115439717452
0.0114886031006
2.33768013586e-05
0.0126004779257
-1.35465714896e-05
1.8652215891e-05
1.49481510738e-05
-0.0126031101186
-0.000124723317223
4.03721737694e-05
0.0126235343622
-4.081915071e-05
-3.13152775815e-05
0.0126140025311
3.30059414264e-05
6.36992208926e-06
0.000116276618417
0.0113631097256
5.30379372125e-06
8.91167452354e-05
0.0114346000775
1.66679716894e-05
-2.71001939689e-05
0.0113611112955
1.49393073501e-05
0.0126325914816
3.81909935266e-05
-0.000152797020225
-0.0126478379292
0.0126687864302
4.95869757884e-05
-8.41287902285e-06
-0.0112999272765
0.0112254462758
1.49482793547e-05
-0.011295596002
-3.63089084989e-06
0.011215266589
-0.00013475054972
5.0997863652e-05
-5.581071157e-05
-4.04643733911e-06
0.000125687072727
1.27725738359e-05
5.25019252902e-07
4.46146731499e-05
-0.000198995882654
-0.0126151866712
0.0126471049349
-5.17056410692e-05
-1.34274504803e-05
-0.0112957651223
0.011204826388
-0.0113122038459
0.011213875263
-1.47175601099e-05
-4.90118884601e-05
-0.00015758915385
-0.0126080860406
0.000153887175131
6.80615051495e-06
-0.0113898514167
-8.28927538611e-06
-0.0125894615023
-4.03129835042e-05
-0.0113702956005
3.87476649824e-06
-0.000156817750467
6.81494959186e-07
-6.66378392051e-07
-4.30148032714e-06
-1.60185502701e-06
0.000699527102996
-0.0007700211847
7.30846608167e-05
-6.36477116721e-07
1.33564484806e-06
2.56817716535e-07
-1.11070642151e-06
0.000733142172744
2.64143543241e-06
-1.06255534653e-05
-5.20346225272e-06
-5.62362390425e-06
-0.000274239335612
0.000198439936169
-0.000773799977547
3.87921330778e-06
-1.44629560989e-05
-1.37885957152e-05
-1.06835902973e-05
0.000653541756254
-0.000222301065584
7.75523891415e-07
-7.41751714954e-07
-8.07977936329e-07
5.54505970537e-07
-6.64346507712e-07
6.19828648019e-07
4.84287305279e-06
-0.000173192267331
1.84105111705e-05
2.15362041735e-05
2.3517105932e-05
1.99135297648e-05
0.000219866612521
-2.02008044738e-06
-1.28138054706e-06
4.52055215939e-06
-1.64000889172e-06
3.80736965576e-07
4.20324254331e-06
-0.000229297824505
1.92699087266e-05
1.87647912818e-05
1.70248092508e-05
1.78950359187e-05
-0.000312311885811
0.000206468014407
-2.49026243607e-06
-6.65871350823e-07
5.39841403567e-06
4.21165047327e-06
1.59996694889e-05
1.66333838427e-05
1.68145376445e-05
-0.000287437356967
-0.000257857608599
-8.90946549707e-07
-1.02673828931e-07
-2.87383995502e-05
-0.0126444604279
-3.4162978093e-05
0.0126444661423
3.12056609978e-05
0.012648442879
3.40580188701e-05
-3.41184747731e-05
-0.0126478048458
2.92693045447e-05
4.88491082167e-05
0.0116488482816
-7.2086530522e-05
3.23610488473e-05
0.0116628062271
-0.0116720618563
3.25794740007e-05
0.012649634635
-2.68542105935e-05
-0.0126428920841
3.52774752871e-05
0.0116454922008
2.48874966842e-05
-2.11559999399e-05
0.0126471689618
-3.72286018186e-05
2.22139872037e-05
-0.0126530763698
1.53997479931e-05
-1.30511593134e-05
0.0126551915053
3.39067405983e-05
3.62639005566e-05
-6.07947650768e-05
3.03763414247e-05
-0.0116197510036
9.87670434214e-06
0.0115951070931
-1.92495350265e-05
1.46019810979e-05
0.0126492386542
1.54696141217e-05
0.011645137678
-7.84170881809e-06
4.94990454601e-06
-0.01165995171
2.51668857551e-05
-7.94091622399e-06
0.0116223543112
7.49524735279e-06
-1.5782649466e-05
0.0126321740062
1.8692495803e-05
0.0126399191347
-3.10120743135e-05
-0.0126402185207
2.41122682083e-05
-0.0116233336618
0.0116019882452
0.0126408584053
-0.0116431344273
-0.000152282718179
0.0126999100524
5.38846443408e-05
-1.17581540429e-05
0.0111638943712
1.84938946312e-05
0.0111495125236
-1.03550164131e-05
6.52462991255e-05
-0.000161827731998
0.0127176041241
-7.3629196109e-05
0.000158488735565
-1.35795488313e-05
0.0111029226864
1.63395570835e-05
0.0127229022061
6.00056219645e-05
0.011084131974
-1.44583793605e-05
6.7063341718e-05
0.0127465858415
-0.000149515886135
-7.25803572722e-05
-0.0127485890483
-6.74208742837e-05
0.0127626215876
6.69043315309e-05
0.000143921354987
-1.5137188578e-05
1.58373242325e-05
0.000134905414947
-0.0110324793906
-1.38562196117e-05
0.010991228017
6.29095731921e-05
-6.94358012473e-05
0.0127620559128
-1.62398608737e-05
-0.012689049156
-0.000197032473734
7.08273935322e-05
-6.39173556701e-05
-0.000195783707265
-6.14148899999e-05
-2.39365494303e-05
0.0111329672126
0.0111339625728
-2.63566253778e-05
2.67043451296e-05
0.0110534882182
-2.78305864054e-05
-0.000181963515568
0.0127172713233
0.0110654398975
0.0109858934169
2.25172104282e-05
-2.72248797922e-05
0.000143523750091
1.8692010798e-05
0.0109402244895
-1.88782921271e-05
6.05682494214e-05
0.0127682947307
-5.53265724269e-05
0.0127495091665
-0.000164190455109
0.000141896024936
-0.0110102182978
0.0109699552891
0.0127660195313
-0.000260481107076
-0.000206582595928
-4.71196267529e-05
0.00143293841
0.203254167729
-0.000128475659505
-0.00101552863061
-0.000265280404298
-6.61965122838e-05
-9.0233377934e-05
-6.59309212648e-05
-9.4196148409e-05
0.0002836212222
0.0510291023317
1.01080698612e-05
0.00020150176216
3.52176875003e-06
6.25867615119e-06
1.05769426097e-05
6.0220586245e-06
-0.000235239374124
-0.000377241827957
4.3203972211e-10
4.77222248212e-10
2.35200088848e-07
1.51674083886e-09
7.45771951026e-10
2.06044884351e-07
2.50341064383e-09
-2.34633135756e-05
-3.23444491155e-05
-3.04746377334e-05
-2.62801330752e-05
0.000112850129687
-3.01320339415e-05
0.0505823625675
-5.11377500544e-07
2.93917289766e-05
-5.03131732349e-06
0.0115904973739
0.051002234288
-5.06303181813e-05
-8.9447579759e-05
-8.36245299152e-05
-5.43745112574e-05
-0.000228451985571
0.0509296264168
-2.81402497991e-05
1.99744670699e-05
1.62755761369e-05
-2.80098387878e-05
0.000294304530177
-0.000249012458015
0.000105725085104
0.010959119985
-1.33665935537e-05
1.77138250949e-05
-1.00228829638e-05
0.000100968612405
1.1457728464e-05
0.010900755534
-1.0140735053e-05
0.0108247658849
5.29388202496e-05
-3.1831667367e-05
-6.12242433067e-06
-0.0108499451021
5.33203762867e-06
0.0507960499115
5.4229614584e-05
3.6486942736e-05
3.54506594172e-05
6.00676866867e-05
-9.02780973006e-05
0.000307350422908
-0.000269866013313
5.39381862364e-05
6.5183805441e-05
6.07477745887e-05
6.08695519057e-05
-0.000143206418493
0.000330216007639
0.0506666633784
-0.000298445675349
6.90549499478e-05
-5.56381646189e-05
-7.73689949411e-06
0.0108020457739
5.99524123458e-06
7.73196825435e-05
-8.42315675882e-05
-2.53616737244e-05
-0.0107835724165
0.0107725355625
3.0907209148e-05
4.67635838327e-07
8.81485352157e-07
5.20244739926e-08
-9.90205968538e-05
0.000596456928396
4.14274151179e-06
-0.000407100606427
2.84675003295e-06
9.70287696577e-06
4.12876043007e-06
4.34580719216e-06
0.000191837809203
-4.52867937332e-07
-0.000412775586349
-4.07174025365e-05
-2.08428702043e-05
-1.24478490498e-05
-0.000201979362797
0.000225791601789
1.33451188231e-06
1.60243927353e-06
-4.626479044e-07
-3.0157097716e-07
4.49512500979e-06
-6.9653322415e-07
1.29757604395e-07
3.23319440331e-06
-0.000267036020598
-6.10713958275e-05
-8.3477757707e-05
-6.43912526668e-05
-0.000228061884703
-2.65462654606e-06
0.000293880602035
-6.19331786574e-05
-7.77060299456e-05
-6.00241590231e-05
-0.000277836329735
-1.66250180696e-06
-0.000158785428591
0.0003707362718
-0.0126365266887
-1.88647929408e-05
-1.16354437772e-05
8.48207067103e-06
0.0126356583585
-4.13699756135e-06
0.012626189769
2.57036340757e-05
0.0115807770407
-1.37531130221e-06
-8.80661396004e-07
2.83792576598e-05
0.0115625848689
-4.30885455929e-06
6.73336222564e-06
0.0115557571724
0.0126255667834
6.75147866807e-05
-0.0127735706815
-5.38869710256e-05
-6.62880690016e-05
0.0127605736828
0.0127749901534
-6.81140701403e-05
7.23827845316e-05
5.79407001909e-05
-1.26542773291e-05
1.77520945464e-05
0.0109438185389
0.000106957278165
0.0109484670543
-1.00646524595e-05
7.17155771236e-05
0.0127637441561
-6.58122519002e-05
-7.79944408332e-06
0.010931140921
-0.0127753590806
-4.50197104288e-05
-5.45049122237e-05
0.0127586599382
5.46189985419e-05
0.0127750212971
-4.86183489403e-05
0.000102894346844
0.0109298902273
6.37036342487e-06
4.22153006238e-05
0.0108850298503
-5.36047836413e-06
0.0109131176381
0.0127562728975
-4.7598976258e-05
0.012746316838
-2.92204052674e-05
-5.37034502002e-05
6.70782236914e-05
5.53060041815e-05
-0.0127437919589
0.0127258208127
-4.9256565044e-05
-2.26569270842e-05
-0.0108805309531
0.010846640544
-2.91361100997e-07
4.84973014447e-07
2.18094113895e-05
3.91053500943e-07
0.0127281423998
6.70684483412e-05
3.83693858132e-06
-4.7729182635e-05
-0.0127042769348
6.90500657856e-05
-6.28640344179e-05
0.012676740192
7.53958399438e-05
5.80386712385e-05
0.0127011306928
-5.27132384879e-05
-4.72786866144e-05
0.0108120111584
-2.40334252622e-06
-1.33236634277e-05
-8.56494804095e-05
0.0107905041325
1.08987741066e-05
6.99347840888e-05
0.010797636486
-7.12140976424e-06
0.0126712004365
-5.88189643573e-05
0.0126507559708
6.82861392219e-05
-6.79964645662e-05
7.94058950266e-05
7.64857556584e-05
-0.0126426601637
0.0126198295101
-7.27720872219e-05
-7.34887588809e-05
-0.0107914704367
-1.40255350198e-05
0.0107766162941
-1.94699706573e-05
-8.55692302244e-05
1.86311402111e-05
8.62663529356e-05
0.0126280826417
-1.18705219533e-05
-6.43683875721e-05
-0.000516729841589
-0.0493612947026
0.0493226586271
0.000643428202972
-4.65563446365e-05
-2.96625802514e-05
-2.88120596747e-05
-5.06980058394e-05
6.78138901435e-05
-0.000710797894633
0.0499446529978
-5.66743403393e-05
-8.06426353872e-05
-5.89505045687e-05
-8.206668979e-05
0.000189290158196
-0.0498096542999
0.000664970718828
-0.00112616986064
-0.0500713316581
0.0502039047799
0.000892981293865
4.28963345422e-05
2.2420888373e-05
2.89558180175e-05
3.32612793378e-05
-2.69533323996e-05
-0.000678975306641
3.13256201925e-06
8.88618299205e-06
1.44013497455e-05
-1.00273080766e-05
3.45493434387e-05
0.0503158242419
0.000536832856464
-0.0502247051511
4.75344861321e-06
-6.62200850392e-05
-0.00074025975532
0.000719172785436
9.69493599566e-05
5.61440912315e-07
5.91550303451e-06
6.96409456783e-06
7.94818077888e-06
9.16979034975e-07
-0.000726523740179
0.000756407803806
2.3582551542e-05
-8.66625312507e-07
1.41873241246e-06
1.14347188904e-06
-6.67039292161e-07
3.06754740733e-06
8.98834051505e-06
-0.000103207751925
0.000547724309812
2.92350212628e-07
5.77598737385e-06
8.07540170236e-06
4.73889799034e-06
-0.000551932476631
9.82658040645e-05
-3.26163543816e-05
-4.84862041931e-05
-0.000598478211963
0.000754509720363
0.000117680329179
-4.11178403978e-06
-2.85444254665e-05
-7.78639567127e-05
-7.14905285182e-05
-2.93742214395e-05
-0.00023094122339
-2.31768837488e-05
9.08939716225e-07
1.0947645569e-07
0.000688938079103
0.000217048710514
-1.4325649354e-06
-0.000615413469314
1.60986375971e-07
-3.30594128339e-09
5.671155978e-08
3.01071377984e-08
3.45659206673e-08
4.16392437585e-09
9.71495420399e-10
-6.21053585635e-29
-3.80221083939e-07
-4.19865775108e-07
-1.05509151938e-06
-5.62989289746e-07
-9.27854177741e-07
7.35415568341e-09
-1.36745087472e-07
4.29133751321e-08
-9.11518998928e-09
2.78260583281e-07
1.01194441675e-07
3.47755095893e-09
4.17172679703e-09
-2.03814298374e-10
-1.85126991837e-07
-2.05215342595e-07
-3.03907916306e-07
-1.30251224191e-07
-1.47817698955e-07
1.73838065714e-07
2.51090517325e-07
2.59094865007e-08
1.51091112098e-07
1.47949634355e-07
-1.3086202086e-07
-5.19939890293e-09
2.8230243103e-08
4.6820828103e-08
4.77814961276e-08
1.80358549694e-07
1.0771798396e-07
9.1533432566e-07
-4.42565227683e-07
0.00018523129237
1.91101388975e-05
1.20786255329e-05
2.04355461228e-05
1.69547179601e-05
0.048952994707
8.61519680933e-05
-7.09837572707e-05
-0.0492220209698
0.0490463226565
0.000290434452847
1.92361362911e-05
4.1942305372e-06
1.93998754587e-05
1.04147984427e-05
7.75510485894e-05
-0.0492823183981
6.37411333029e-06
-2.29949358896e-05
-0.0117478501287
8.26278550909e-06
0.011734815633
1.92950951813e-05
0.0117249591638
8.32548988695e-05
2.33132515718e-06
-8.7998176494e-06
-6.50585904527e-05
-0.0117402039246
1.86014938353e-05
2.56282476947e-06
2.93094381167e-05
3.81320022661e-06
-0.000302020386907
0.0122677376627
0.0122256678496
0.0121294744991
0.0121894565402
-3.49022063075e-05
9.11530183915e-05
-2.20360571467e-06
4.73627701255e-06
-6.68106966772e-05
0.0117053546293
0.000392259795202
-3.8008456609e-05
-2.76284172586e-05
-1.76953390868e-05
-4.90470660911e-05
9.24300702553e-05
-0.0494231502742
0.0495907739603
-6.68238766733e-05
-9.59767735619e-05
-7.81186780817e-05
-8.1875227384e-05
0.000153664895074
-0.0495617771212
0.000532615303341
0.0117084104339
-2.36783042642e-06
3.86581169898e-05
-0.0117362578858
9.24516660081e-05
0.0115626419025
-1.10511478445e-05
0.000150739189579
-8.4878170687e-05
-0.011620867116
7.73118625664e-05
0.000958726943286
-2.82613926396e-05
1.73902458594e-06
-1.74155500212e-05
-4.22111649596e-06
0.0493062239835
-0.000212081128857
-0.000175046319236
-0.00021599792464
-0.000178070325005
-4.22710952595e-05
-2.12550709145e-05
-2.93437956153e-05
-1.99175504944e-05
0.0496369096283
-5.35086113593e-05
-7.96447022302e-05
-6.37352711874e-05
-6.10739988594e-05
0.000144576115141
0.0498160173795
0.000901461663242
-3.601724205e-05
-8.44120872948e-07
-1.47602334845e-05
-4.65725113319e-05
-2.34084436695e-05
4.8828892209e-05
0.0116755923534
0.000105984109369
0.0115822099429
-3.50718579228e-06
1.22363371852e-05
-0.0116027850354
0.000160322792018
-0.00014472643216
9.62724130752e-05
-1.03398995695e-05
0.000126521748958
-0.000101785972565
0.0115162593267
0.011455210416
0.000148675758855
1.30427143015e-06
-4.56375464434e-06
-0.00015978487226
-0.0114725415779
0.0499742558884
2.97363754766e-05
2.35253641704e-05
2.04699375322e-05
3.13566347516e-05
-0.00122948206526
-0.000159748589169
0.00129149174211
4.67482728473e-05
4.42796791439e-05
5.0013348383e-05
3.91926750761e-05
0.0504848341006
-0.00032608910602
-0.00165589273314
-2.3353840761e-06
0.011561649064
0.000171568920077
-0.00016173428685
-3.89636854589e-06
-8.38285917652e-06
-0.011585969312
0.000206932673287
0.0115967482607
-0.000207204778801
0.000145318666194
3.84508449131e-05
-2.95550535815e-05
-0.000166206647494
0.0114609419804
0.0001570562319
2.45891978006e-05
-3.22655022716e-05
-0.000180072129135
-0.0115122418866
0.011532882996
0.000784744783811
-3.80302113696e-05
5.9259163622e-06
-4.45628881161e-05
8.58811751408e-06
5.80360587847e-05
0.0501837431965
-2.77718467512e-05
1.03768248341e-05
1.10359472223e-05
-2.57999894453e-05
7.06113003938e-05
-0.0500780525611
0.000640467291813
0.000114603099537
0.0114776745887
9.38271855265e-05
-0.0115153116126
0.0114365910754
3.19862698893e-05
-2.40286188257e-05
-0.0114534003942
0.000132501499835
0.0114468726298
3.63659941718e-05
-3.45175540619e-05
-0.000105832814155
-0.0114573074798
9.48662764146e-05
0.000979779399737
4.98644609179e-05
3.77083147504e-05
4.36292322045e-05
4.6577330628e-05
0.050444048351
-0.000106226337655
0.0502894710627
4.60701948594e-05
2.58260849176e-05
3.77965957097e-05
3.71285056743e-05
-3.87393581608e-05
5.45941113803e-05
4.9302100647e-05
4.99590641773e-05
5.46357477881e-05
0.0504223033443
0.0007243031973
-8.59747854457e-05
-4.43762242016e-05
0.0114463197698
0.000141280882881
1.85314579514e-05
-4.46347077236e-05
-0.0114977284739
0.000151551251799
0.0115239153339
0.00010985854007
4.28184216526e-05
-5.21811223277e-05
-0.000112928041647
0.0114489723524
0.00013960498732
3.89368506319e-05
-7.15592617252e-05
-0.000136585887818
-0.0114895495738
0.011509513002
-3.07160848381e-05
0.0114766850849
0.000104910353941
-0.011476732588
-4.8057589675e-05
-0.0115186186585
0.0115382720798
2.50745483901e-05
0.000134827911122
2.06003554209e-05
-7.26744706659e-06
-1.23971314894e-05
-1.28737801057e-05
0.000839618131597
6.77506235719e-05
-0.00082034774083
-2.63586655028e-08
0.000826529247666
0.000108085541596
-1.66804922109e-05
-1.07364131588e-05
-1.25670619288e-05
-0.000803912795674
-4.40852758324e-08
-1.71209638371e-08
7.07273129325e-07
4.74419267983e-06
2.28795132054e-06
-6.4003160424e-06
0.000806339468667
1.70476688965e-07
-1.22004850093e-08
3.29378198872e-08
2.25141847025e-11
-2.56055006658e-08
-3.14474301222e-08
1.03120089221e-06
-3.5432237615e-07
-3.0547422827e-08
6.03667265938e-07
-1.41580990538e-07
-6.09010577008e-08
2.4400028205e-06
-2.46858923284e-07
-2.92010215502e-07
3.796301864e-06
-9.29324427801e-08
-2.51528875679e-07
-2.30235524187e-07
-1.7255117076e-07
3.54940585899e-06
3.26220663558e-07
-6.4545072857e-07
5.41161686375e-06
-4.34472907768e-07
3.08307313223e-07
-5.29945455399e-07
4.02889816658e-06
1.00089953703e-06
0.000139602850494
7.87454135547e-07
5.16888851962e-06
2.81246028288e-06
3.7916103319e-07
-0.000761938998429
0.000610245683677
7.6297945866e-06
8.87823046527e-06
5.71542949178e-06
-0.000653121817567
1.94977683382e-06
0.000113378793685
5.35999505892e-05
-7.55777172769e-08
5.45337708962e-06
3.61297971764e-06
5.41909334355e-06
-1.97419027861e-05
0.000602962417906
4.730758394e-07
7.39289111222e-06
7.53387677348e-06
7.44986527821e-06
-5.91183872569e-07
0.000643100396273
7.74514866557e-05
1.46124269772e-06
3.49698642775e-06
3.70207467758e-06
1.8839911477e-06
-2.71837172079e-07
-3.14351275705e-07
-1.41737538089e-07
3.70074680947e-06
2.96086707959e-06
-2.13099806882e-07
-1.50775951539e-06
4.31736372731e-06
5.484726534e-08
-3.41247294578e-06
-1.16697889882e-06
3.09439414906e-06
1.22079734055e-06
-5.14350801555e-06
0.000779406652264
1.59193302627e-05
0.000724623174765
-1.98222411484e-06
-1.23828720741e-05
-3.33666114515e-05
-3.0865391975e-05
-2.31590297165e-06
1.91148281571e-05
-6.1827603852e-06
-3.09800052603e-05
-3.19084235334e-05
0.000778423157444
5.47145645113e-06
8.12500378376e-08
3.22745434792e-07
4.04271351119e-06
5.58244176467e-06
4.79196508788e-07
1.05571785798e-06
4.2373559434e-06
0.000106726089121
-9.51661967474e-07
1.48663058603e-06
-3.74006041677e-05
3.25508409773e-07
-1.12129832285e-06
0.000603882599887
-3.71274454802e-05
-1.97862133718e-06
-3.68313994768e-06
-0.000553029959406
0.000143410532475
3.43142717789e-06
-2.33222019995e-06
-1.00086320865e-07
8.05414958257e-08
4.55696244663e-06
4.79509494804e-06
-3.60723227315e-06
-1.36349587254e-07
0.000102227850655
-4.90202196916e-06
-3.49223881024e-05
-4.66961655716e-05
-5.68478442469e-05
0.000835198851168
0.000762070066404
-4.50902833218e-06
-7.38965124113e-05
-4.19820670897e-05
-6.76251937973e-05
-5.5199794128e-06
-4.96231730443e-05
-4.83934938018e-05
-5.19529602758e-05
0.000855970541724
0.000231370732004
5.43725194533e-06
3.46522621891e-07
7.66151150076e-07
5.07716224239e-06
5.15793711207e-06
-2.15287271709e-07
6.0813230549e-06
-2.59995999899e-07
0.0123069048006
3.86470371418e-05
-3.05263401082e-05
3.28518804665e-05
-0.0123287770208
3.81115294251e-05
-0.0123024837256
0.0122765127368
-2.32139050786e-05
1.00002738334e-05
-3.11318844256e-05
1.82801691844e-05
-0.0117540846219
-3.3662065423e-05
-0.0117473324309
3.9207414638e-05
0.0117343815997
4.94061267544e-05
0.0122822226599
4.03839784225e-05
-0.0117543477891
-2.20644971251e-05
-0.0123251666683
0.0123169214131
3.75474956856e-05
3.44292476976e-05
-0.0123368459074
-5.89315614574e-05
-0.0123343637052
0.0123261095393
6.25595277998e-05
-2.7036707768e-05
-0.0117454198374
0.0117259850491
-1.8134621554e-05
-6.70735367084e-05
8.21037148609e-05
-0.0117502396971
0.0122996501071
4.36891972964e-05
-0.0123482647997
-0.0117529815265
-0.0122935709341
0.000106329314155
4.02845526352e-06
-8.29319862299e-05
0.0122846171785
-7.75540072318e-05
0.0123216451293
8.94642126887e-05
-1.7976633297e-05
0.0117152401533
-3.66362852928e-05
1.76728179884e-05
-7.30486345788e-05
0.000106510111246
0.0116807245087
-6.02869984579e-05
0.000128730216987
0.0123207398446
-3.97549365269e-05
0.0116981576777
-4.59367073886e-05
0.0123832199886
-5.97460425122e-05
6.36281506682e-05
-0.0123790588634
-0.0123548709014
6.98044629255e-05
0.012358655666
1.36385156058e-05
8.74721554296e-05
-0.011748540728
8.21576422173e-05
-0.0117148676513
9.13420517051e-05
0.0116707456019
-0.0123606769609
9.09881585556e-05
0.0123953439149
8.01597414273e-05
-0.0117430631739
0.0124144901447
8.85748642948e-05
-0.000104500640463
-0.0124014700952
-0.000116205569754
-0.0124435296918
0.0124672927448
0.000147820162139
0.000121380388687
-0.0116760555683
0.0116242351675
0.000135454602678
-7.12613485776e-05
-0.011662979297
6.00756917874e-05
0.0124329448495
-0.0124203718487
0.000119616959337
-0.0117129366618
-0.000149325664088
-0.012407791765
-7.78198513083e-05
0.0124172042738
0.000171141000911
0.0123622711104
0.000105208358513
5.4125642916e-05
0.000123016337861
0.0116406194406
8.65564691492e-05
0.0116289091936
0.000106304030252
0.0123672009017
0.000128717585693
0.0115853299826
0.000127990390088
-0.000199987390644
0.012426072014
-5.37044934819e-05
0.000216317948068
-0.012378381317
0.000242085851651
0.012374229406
-0.000223999417549
5.18935387303e-05
0.000139096509259
-0.000121049017349
1.45085764378e-05
-0.0115389035267
0.000168013534361
0.0115353435462
-0.000176481274237
0.00025500189718
0.0124232431384
0.000147110941858
-0.0124533527384
0.000187697829895
-8.17838894837e-05
0.0124653217615
-0.00015111373053
0.0124935262645
0.000172429402111
0.000106125030459
0.0115783576802
8.12437733489e-05
-0.000125660204917
0.0114935697009
0.000116117620739
0.0125019803175
0.000199774103847
0.0115378568033
0.0124665043614
0.000224895930666
-4.56604030922e-05
-0.000254865041393
-0.0125005409459
0.0124986050187
0.000251038712021
1.16358187772e-05
-0.0115016541214
0.0115045281388
4.82161793201e-05
-0.000143844224309
0.000135480107605
0.0124634013932
0.000227791568699
-0.000327510354002
-0.012431618873
2.39817427002e-05
0.0124437787125
0.000329367729318
-3.8360294626e-05
0.0123809600389
0.000283272023833
-2.39942977383e-05
-0.000268427314118
-9.36823231238e-06
0.000188591852377
0.0115667566373
-0.000183488805925
-3.63631836004e-06
0.0115384953989
0.000178851878559
0.0123989617281
-3.78011932031e-05
-0.000317386507304
0.000293081662724
-2.2185229791e-05
0.0115391968286
0.000190660609777
-0.000367687915158
3.37516904853e-05
0.0125005704983
0.00036598333832
-8.91598149785e-05
-0.012476012652
0.000388802606565
0.0125675521075
-0.000390255462072
-9.86677371407e-05
-7.89548639846e-06
0.000203932747773
-0.000197261137306
-0.0115373054531
-2.2986570822e-05
0.000203662051608
0.011541614073
-0.000355268483545
-9.78089331434e-05
0.000199881560503
0.000388105862094
0.0125692766558
-9.12151476587e-05
-0.0124724468687
0.000314116052008
2.98864638676e-05
0.0124867697339
-0.000289744284848
0.0125027981363
0.000279318475274
-1.42499245251e-05
0.0115142792208
-3.58281932587e-05
-0.00016854109116
0.0114821080413
0.000149275027685
0.0125140122197
0.000298117566515
0.011511052127
0.000340379575392
3.79685769805e-05
0.0125206245362
-0.0125369192813
-0.00035675441631
0.000328448297979
0.0125773315132
-0.0115211504422
-1.59788593033e-05
0.0115423586307
-4.91721372153e-05
-0.000174143939927
0.000155665576634
0.000318169202016
0.0125751351075
-0.000195888053076
-0.0125408949248
-4.04052324687e-05
0.0125391576911
0.000181834802876
0.01252293304
0.000180309837335
-0.0124958406331
5.76653674591e-05
0.00010957165989
0.0114696942722
9.74132915958e-05
0.0114416447101
-0.0114732131124
8.90948800938e-05
0.0125260545136
-0.0125191124453
0.000174629170589
0.0114419242321
0.000102511239801
-0.00021635688888
0.0125417891697
-1.923201081e-05
0.000194997981884
-0.0125246015856
0.000232211111186
0.0125249801738
3.17726761556e-05
0.000123900212413
-3.31723950683e-05