/*--------------------------------*- C++ -*----------------------------------*\
| =========                 |                                                 |
| \\      /  F ield         | OpenFOAM: The Open Source CFD Toolbox           |
|  \\    /   O peration     | Version:  v1906                                 |
|   \\  /    A nd           | Web:      www.OpenFOAM.com                      |
|    \\/     M anipulation  |                                                 |
\*---------------------------------------------------------------------------*/
FoamFile
{
    version     2.0;
    format      ascii;
    class       volVectorField;
    location    "6.05";
    object      force.turbine;
}
// * * * * * * * * * * * * * * * * * * * * * * * * * * * * * * * * * * * * * //

dimensions      [1 -2 -2 0 0 0 0];


internalField   nonuniform List<vector> 
28582
(
(0 0 0)
(0 0 0)
(0 0 0)
(0 0 0)
(0 0 0)
(0 0 0)
(0 0 0)
(0 0 0)
(0 0 0)
(0 0 0)
(0 0 0)
(0 0 0)
(0 0 0)
(0 0 0)
(0 0 0)
(0 0 0)
(0 0 0)
(0 0 0)
(0 0 0)
(0 0 0)
(0 0 0)
(0 0 0)
(0 0 0)
(0 0 0)
(0 0 0)
(0 0 0)
(0 0 0)
(0 0 0)
(0 0 0)
(0 0 0)
(0 0 0)
(0 0 0)
(0 0 0)
(0 0 0)
(0 0 0)
(0 0 0)
(0 0 0)
(0 0 0)
(0 0 0)
(0 0 0)
(0 0 0)
(0 0 0)
(0 0 0)
(0 0 0)
(0 0 0)
(0 0 0)
(0 0 0)
(0 0 0)
(0 0 0)
(0 0 0)
(0 0 0)
(0 0 0)
(0 0 0)
(0 0 0)
(0 0 0)
(0 0 0)
(0 0 0)
(0 0 0)
(0 0 0)
(0 0 0)
(0 0 0)
(0 0 0)
(0 0 0)
(0 0 0)
(0 0 0)
(0 0 0)
(0 0 0)
(0 0 0)
(0 0 0)
(0 0 0)
(0 0 0)
(0 0 0)
(0 0 0)
(0 0 0)
(0 0 0)
(0 0 0)
(0 0 0)
(0 0 0)
(0 0 0)
(0 0 0)
(0 0 0)
(0 0 0)
(0 0 0)
(0 0 0)
(0 0 0)
(0 0 0)
(0 0 0)
(0 0 0)
(0 0 0)
(0 0 0)
(0 0 0)
(0 0 0)
(0 0 0)
(0 0 0)
(0 0 0)
(0 0 0)
(0 0 0)
(0 0 0)
(0 0 0)
(0 0 0)
(0 0 0)
(0 0 0)
(0 0 0)
(0 0 0)
(0 0 0)
(0 0 0)
(0 0 0)
(0 0 0)
(0 0 0)
(0 0 0)
(0 0 0)
(0 0 0)
(0 0 0)
(0 0 0)
(0 0 0)
(0 0 0)
(0 0 0)
(0 0 0)
(0 0 0)
(0 0 0)
(0 0 0)
(0 0 0)
(0 0 0)
(0 0 0)
(0 0 0)
(0 0 0)
(0 0 0)
(0 0 0)
(0 0 0)
(0 0 0)
(0 0 0)
(0 0 0)
(0 0 0)
(0 0 0)
(0 0 0)
(0 0 0)
(0 0 0)
(0 0 0)
(0 0 0)
(0 0 0)
(0 0 0)
(0 0 0)
(0 0 0)
(0 0 0)
(0 0 0)
(0 0 0)
(0 0 0)
(0 0 0)
(0 0 0)
(0 0 0)
(0 0 0)
(0 0 0)
(0 0 0)
(0 0 0)
(0 0 0)
(0 0 0)
(0 0 0)
(0 0 0)
(0 0 0)
(0 0 0)
(0 0 0)
(0 0 0)
(0 0 0)
(0 0 0)
(0 0 0)
(0 0 0)
(0 0 0)
(0 0 0)
(0 0 0)
(0 0 0)
(0 0 0)
(0 0 0)
(0 0 0)
(0 0 0)
(0 0 0)
(0 0 0)
(0 0 0)
(0 0 0)
(0 0 0)
(0 0 0)
(0 0 0)
(0 0 0)
(0 0 0)
(0 0 0)
(0 0 0)
(0 0 0)
(0 0 0)
(0 0 0)
(0 0 0)
(0 0 0)
(0 0 0)
(0 0 0)
(0 0 0)
(0 0 0)
(0 0 0)
(0 0 0)
(0 0 0)
(0 0 0)
(0 0 0)
(0 0 0)
(0 0 0)
(0 0 0)
(0 0 0)
(0 0 0)
(0 0 0)
(0 0 0)
(0 0 0)
(0 0 0)
(0 0 0)
(0 0 0)
(0 0 0)
(0 0 0)
(0 0 0)
(0 0 0)
(0 0 0)
(0 0 0)
(0 0 0)
(-0.00188954281265 3.30768263881e-05 0)
(0 0 0)
(0 0 0)
(0 0 0)
(0 0 0)
(-2.59996598061e-05 2.77054032596e-07 0)
(0 0 0)
(-2.63260363428e-06 2.81268852531e-08 0)
(0 0 0)
(0 0 0)
(0 0 0)
(0 0 0)
(0 0 0)
(0 0 0)
(0 0 0)
(0 0 0)
(0 0 0)
(0 0 0)
(0 0 0)
(0 0 0)
(-0.0161312043744 0.000453465369375 0)
(0 0 0)
(0 0 0)
(0 0 0)
(-0.0299235301205 0.000620693790445 0)
(0 0 0)
(0 0 0)
(-0.158140270926 -0.009983281873 0.0258917885598)
(-1.43296952021 -0.110893747562 0.275099231976)
(-0.0813309743818 0.00168702123601 0)
(-0.780351757105 0.0161571234279 0)
(-0.00603715727859 6.41629635162e-05 0)
(-0.0805133925981 0.00167006241015 0)
(0 0 0)
(0 0 0)
(0 0 0)
(0 0 0)
(0 0 0)
(-0.0161312040682 0.000453465360767 0)
(0 0 0)
(0 0 0)
(0 0 0)
(-0.0295624297234 0.000613203605521 0)
(0 0 0)
(0 0 0)
(0 0 0)
(0 0 0)
(0 0 0)
(0 0 0)
(0 0 0)
(0 0 0)
(-1.55811443494e-05 1.65848766643e-07 0)
(0 0 0)
(-9.60218413891e-06 1.02207537572e-07 0)
(-0.000137667580424 2.002010036e-06 0)
(-0.000762352597036 1.10863977236e-05 0)
(-8.60101208037e-05 1.25078921643e-06 0)
(-0.000467200928534 6.79419907627e-06 0)
(0 0 0)
(0 0 0)
(-0.000204972919409 2.17991451681e-06 0)
(0 0 0)
(0 0 0)
(0 0 0)
(0 0 0)
(0 0 0)
(0 0 0)
(-0.00856001015319 0.000149844696729 0)
(-0.000420450998265 6.24217201823e-06 0)
(-0.00200432218328 3.50860623207e-05 0)
(-3.04110844179e-05 4.03743262222e-07 0)
(-0.000158152951883 2.29991546243e-06 0)
(-3.92590809903e-06 4.19446228735e-08 0)
(-3.15676366354e-05 4.19097866446e-07 0)
(0 0 0)
(0 0 0)
(0 0 0)
(0 0 0)
(0 0 0)
(-0.000224985671589 2.39275282309e-06 0)
(0 0 0)
(0 0 0)
(0 0 0)
(0 0 0)
(0 0 0)
(0 0 0)
(0 0 0)
(0 0 0)
(0 0 0)
(0 0 0)
(0 0 0)
(0 0 0)
(0 0 0)
(0 0 0)
(0 0 0)
(0 0 0)
(0 0 0)
(0 0 0)
(0 0 0)
(0 0 0)
(-0.0052469845612 5.57398728348e-05 0)
(0 0 0)
(0 0 0)
(0 0 0)
(0 0 0)
(0 0 0)
(-0.00477070840566 5.07031331558e-05 0)
(0 0 0)
(0 0 0)
(0 0 0)
(0 0 0)
(0 0 0)
(0 0 0)
(0 0 0)
(0 0 0)
(0 0 0)
(0 0 0)
(0 0 0)
(0 0 0)
(0 0 0)
(0 0 0)
(0 0 0)
(0 0 0)
(0 0 0)
(0 0 0)
(0 0 0)
(0 0 0)
(0 0 0)
(0 0 0)
(-0.0364337512119 0.000853175600546 0)
(-0.00883035900887 0.000144751241754 0)
(-0.0145109140282 0.000237869470817 0)
(-0.0103591258173 0.000182197770382 0)
(-0.0195013157984 0.000456665763593 0)
(0 0 0)
(0 0 0)
(0 0 0)
(0 0 0)
(0 0 0)
(0 0 0)
(0 0 0)
(0 0 0)
(0 0 0)
(0 0 0)
(-0.00534588885892 5.68161563444e-05 0)
(0 0 0)
(-0.00806704591343 0.000141884344771 0)
(0 0 0)
(0 0 0)
(-0.177840971903 -0.000747517071419 0.00912790166342)
(-0.102044004084 0.00237426394288 0)
(-0.19805829071 0.00410078175615 0)
(-0.0433791499262 0.000899799217725 0)
(-0.367807588505 -0.0048914691137 0.0254564515967)
(-0.0530122469821 0.00124139717023 0)
(-0.104063232063 0.00215854886422 0)
(-0.501716917197 -0.0130072330676 0.0467942204424)
(-1.72984554742 -0.0471001728498 0.16741628403)
(-0.418579174495 0.00866664978339 0)
(-0.417486046352 0.00864401664882 0)
(-0.957150395518 -0.0275361002836 0.0952025310666)
(-0.223684373898 0.00463136784797 0)
(-0.912000192176 -0.0225310281785 0.0831671654635)
(-0.0618924987547 0.00144005646826 0)
(-0.00914133242282 0.000160779047878 0)
(-0.0204352523463 0.000423881613783 0)
(-0.0203633719399 0.000422390622522 0)
(-0.0250396775022 0.000586358559848 0)
(-0.0250397320932 0.000586359838214 0)
(-0.0490235205064 0.00101687851138 0)
(-0.181514999945 -0.00102970277182 0.00980618954659)
(-0.102039853707 0.00237416737581 0)
(-0.196645988362 0.00407154014409 0)
(-0.0431091621342 0.000894198951136 0)
(-0.0530102277059 0.00124134988448 0)
(-0.103726450286 0.00215156311231 0)
(-0.35244092309 -0.0032482165992 0.0215049014542)
(0 0 0)
(0 0 0)
(0 0 0)
(0 0 0)
(0 0 0)
(0 0 0)
(0 0 0)
(0 0 0)
(0 0 0)
(0 0 0)
(0 0 0)
(0 0 0)
(0 0 0)
(0 0 0)
(0 0 0)
(0 0 0)
(0 0 0)
(0 0 0)
(0 0 0)
(0 0 0)
(0 0 0)
(0 0 0)
(0 0 0)
(-0.00531855067498 5.65256058721e-05 0)
(0 0 0)
(-0.00806733259655 0.000141889386995 0)
(0 0 0)
(0 0 0)
(0 0 0)
(-0.0364327119706 0.00085315126445 0)
(-0.0143964279372 0.000235992762994 0)
(-0.00872264426983 0.000142985532997 0)
(-0.0195010323853 0.000456659126858 0)
(0 0 0)
(-0.0103586869953 0.000182190052317 0)
(0 0 0)
(0 0 0)
(0 0 0)
(0 0 0)
(0 0 0)
(0 0 0)
(0 0 0)
(0 0 0)
(0 0 0)
(0 0 0)
(0 0 0)
(0 0 0)
(0 0 0)
(0 0 0)
(0 0 0)
(0 0 0)
(0 0 0)
(0 0 0)
(0 0 0)
(0 0 0)
(0 0 0)
(0 0 0)
(0 0 0)
(0 0 0)
(0 0 0)
(0 0 0)
(0 0 0)
(0 0 0)
(0 0 0)
(0 0 0)
(0 0 0)
(0 0 0)
(0 0 0)
(0 0 0)
(0 0 0)
(0 0 0)
(-0.0150250383545 0.000275250836854 0)
(0 0 0)
(0 0 0)
(0 0 0)
(0 0 0)
(0 0 0)
(0 0 0)
(0 0 0)
(-0.00335252554678 6.14165129269e-05 0)
(0 0 0)
(0 0 0)
(0 0 0)
(0 0 0)
(0 0 0)
(0 0 0)
(0 0 0)
(0 0 0)
(0 0 0)
(0 0 0)
(0 0 0)
(0 0 0)
(0 0 0)
(0 0 0)
(0 0 0)
(0 0 0)
(0 0 0)
(0 0 0)
(0 0 0)
(0 0 0)
(0 0 0)
(0 0 0)
(0 0 0)
(0 0 0)
(0 0 0)
(0 0 0)
(0 0 0)
(-0.321420023153 0.00819996839375 0)
(-0.00771458263702 0.000141327115227 0)
(0 0 0)
(0 0 0)
(0 0 0)
(0 0 0)
(0 0 0)
(0 0 0)
(-0.0705782649806 0.00181758900714 0)
(0 0 0)
(0 0 0)
(0 0 0)
(0 0 0)
(0 0 0)
(0 0 0)
(0 0 0)
(0 0 0)
(0 0 0)
(0 0 0)
(0 0 0)
(0 0 0)
(0 0 0)
(0 0 0)
(0 0 0)
(0 0 0)
(0 0 0)
(0 0 0)
(0 0 0)
(0 0 0)
(0 0 0)
(0 0 0)
(0 0 0)
(0 0 0)
(0 0 0)
(0 0 0)
(0 0 0)
(-1.51269009598 0.0499961867526 0)
(-0.0430900769497 0.00144838614213 0)
(0 0 0)
(0 0 0)
(0 0 0)
(0 0 0)
(0 0 0)
(0 0 0)
(-0.331806212165 0.0108449637455 0)
(-0.00655280427234 0.000239803095509 0)
(0 0 0)
(0 0 0)
(0 0 0)
(0 0 0)
(0 0 0)
(0 0 0)
(0 0 0)
(0 0 0)
(0 0 0)
(0 0 0)
(0 0 0)
(0 0 0)
(0 0 0)
(0 0 0)
(0 0 0)
(0 0 0)
(0 0 0)
(0 0 0)
(0 0 0)
(0 0 0)
(0 0 0)
(0 0 0)
(0 0 0)
(0 0 0)
(0 0 0)
(0 0 0)
(0 0 0)
(0 0 0)
(0 0 0)
(0 0 0)
(0 0 0)
(0 0 0)
(0 0 0)
(-2.577149222 0.070654123607 0)
(-0.0778283023366 0.00213371055369 0)
(0 0 0)
(0 0 0)
(0 0 0)
(0 0 0)
(0 0 0)
(0 0 0)
(-2.57714618628 0.0706540403808 0)
(-0.575040075003 0.0157650756857 0)
(-0.0161313749167 0.000453470163499 0)
(0 0 0)
(0 0 0)
(0 0 0)
(0 0 0)
(0 0 0)
(0 0 0)
(-0.0472016979973 0.00129406344665 0)
(-0.0778224460853 0.00213355000097 0)
(-0.0161312222705 0.000453465872453 0)
(0 0 0)
(0 0 0)
(0 0 0)
(0 0 0)
(0 0 0)
(0 0 0)
(0 0 0)
(0 0 0)
(0 0 0)
(0 0 0)
(0 0 0)
(0 0 0)
(0 0 0)
(0 0 0)
(0 0 0)
(0 0 0)
(0 0 0)
(0 0 0)
(0 0 0)
(0 0 0)
(0 0 0)
(0 0 0)
(0 0 0)
(0 0 0)
(0 0 0)
(0 0 0)
(-0.0461084426801 0.000807349703159 0)
(-0.00145684785699 2.55024142966e-05 0)
(0 0 0)
(0 0 0)
(0 0 0)
(0 0 0)
(0 0 0)
(0 0 0)
(-0.0238433280045 0.000417491953052 0)
(-0.0407223154235 0.000713039681195 0)
(-0.0100115768281 0.000175254662872 0)
(-0.000256868199867 2.73182779175e-06 0)
(0 0 0)
(0 0 0)
(0 0 0)
(0 0 0)
(0 0 0)
(0 0 0)
(-0.000730162794607 1.0840268626e-05 0)
(-0.00125218076582 2.19196757651e-05 0)
(-0.000225559133588 2.39885166844e-06 0)
(0 0 0)
(0 0 0)
(0 0 0)
(0 0 0)
(0 0 0)
(0 0 0)
(0 0 0)
(0 0 0)
(0 0 0)
(0 0 0)
(0 0 0)
(0 0 0)
(0 0 0)
(0 0 0)
(0 0 0)
(0 0 0)
(0 0 0)
(0 0 0)
(0 0 0)
(0 0 0)
(0 0 0)
(0 0 0)
(0 0 0)
(0 0 0)
(0 0 0)
(0 0 0)
(-0.000199070913498 2.35790447274e-06 0)
(-0.000196331506627 2.32545744368e-06 0)
(-2.54018498988e-05 2.70683732108e-07 0)
(0 0 0)
(0 0 0)
(0 0 0)
(0 0 0)
(0 0 0)
(0 0 0)
(0 0 0)
(-2.56378788547e-05 2.73198871711e-07 0)
(-2.54142575266e-05 2.70815948581e-07 0)
(-2.59667310101e-06 2.77430014153e-08 0)
(0 0 0)
(0 0 0)
(0 0 0)
(0 0 0)
(0 0 0)
(0 0 0)
(0 0 0)
(0 0 0)
(0 0 0)
(0 0 0)
(0 0 0)
(0 0 0)
(0 0 0)
(0 0 0)
(0 0 0)
(0 0 0)
(0 0 0)
(0 0 0)
(0 0 0)
(0 0 0)
(0 0 0)
(0 0 0)
(0 0 0)
(0 0 0)
(0 0 0)
(0 0 0)
(0 0 0)
(0 0 0)
(0 0 0)
(0 0 0)
(0 0 0)
(0 0 0)
(0 0 0)
(0 0 0)
(0 0 0)
(0 0 0)
(-0.00335254962441 6.14169540165e-05 0)
(-0.00911311171184 0.00016694743573 0)
(-0.00203340887175 3.72509860148e-05 0)
(-0.08659717544 0.00191194499316 0)
(-0.0177506989282 0.000325183511645 0)
(-0.0525232632777 0.00115964048178 0)
(-0.0107661120889 0.000197229537272 0)
(0 0 0)
(0 0 0)
(0 0 0)
(-0.00240231718344 4.40091931567e-05 0)
(0 0 0)
(0 0 0)
(0 0 0)
(0 0 0)
(0 0 0)
(0 0 0)
(-0.0177499806352 0.000325170352895 0)
(-0.00396055184821 7.25552364594e-05 0)
(-0.0039605359215 7.25549446905e-05 0)
(0 0 0)
(0 0 0)
(0 0 0)
(0 0 0)
(0 0 0)
(0 0 0)
(0 0 0)
(0 0 0)
(-0.070581309228 0.00181766740508 0)
(-0.194947921636 0.00497345118754 0)
(-0.0428092602255 0.00110245896256 0)
(-0.800953129147 0.0237001604042 0)
(-0.176574813182 0.00526544877404 0)
(-0.485800885821 0.0143748223205 0)
(-0.107097753829 0.00319364764681 0)
(0 0 0)
(-0.00467909566402 8.57185829982e-05 0)
(0 0 0)
(-0.0227581951876 0.000700573845157 0)
(0 0 0)
(-0.0121759264167 0.000364537583733 0)
(0 0 0)
(-0.0149127027432 0.000374563819432 0)
(-0.0149124343821 0.00037455707898 0)
(-0.00283785472193 5.19880128524e-05 0)
(-0.176566260114 0.00526519372213 0)
(-0.0375203069719 0.00115500133073 0)
(-0.0375193340851 0.001154971382 0)
(-0.00738463024833 0.000221089975035 0)
(0 0 0)
(0 0 0)
(0 0 0)
(-0.00335266195238 6.14190118061e-05 0)
(0 0 0)
(0 0 0)
(0 0 0)
(-0.33182462366 0.0108455655184 0)
(-0.901958259258 0.0294801732547 0)
(-0.201260109255 0.00657811248935 0)
(-2.22729816064 0.0716615332001 0)
(-0.491285682016 0.0156800831153 0)
(-1.33538836525 0.042620823942 0)
(-0.297979955598 0.00951045520255 0)
(0 0 0)
(-0.0261351135449 0.000878479198953 0)
(0 0 0)
(-0.0664896328427 0.00212211144644 0)
(0 0 0)
(-0.0403281844766 0.00128713151559 0)
(0 0 0)
(-0.0740379563525 0.00241990331403 0)
(-0.0740361098921 0.00241984296315 0)
(-0.0139732340775 0.000512952309341 0)
(-0.491267865958 0.0156795144904 0)
(-0.10961841689 0.003498628091 0)
(-0.109615581704 0.003498537602 0)
(-0.0244585542761 0.000780629637639 0)
(0 0 0)
(0 0 0)
(0 0 0)
(-0.0132963233109 0.000457049480005 0)
(0 0 0)
(0 0 0)
(0 0 0)
(-7.19439117262 0.202332515227 0)
(-4.27455992924 0.117879075864 0)
(-4.36287070498 0.0903329041534 0)
(-2.06623288949 0.0427811938941 0)
(-0.575062911838 0.0157657017716 0)
(-1.56313469008 0.0428542944525 0)
(-0.348789352675 0.00956227362636 0)
(-2.64656396869 0.0547969044891 0)
(-0.279749677294 0.00579219566537 0)
(-1.25252238278 0.0259333801079 0)
(-0.132253813304 0.00273830508602 0)
(0 0 0)
(-0.0472041694471 0.00129413120296 0)
(0 0 0)
(-0.101461618965 0.00210458447271 0)
(0 0 0)
(-0.0479504257788 0.000994619665871 0)
(0 0 0)
(0 0 0)
(0 0 0)
(0 0 0)
(0 0 0)
(0 0 0)
(0 0 0)
(0 0 0)
(0 0 0)
(0 0 0)
(0 0 0)
(0 0 0)
(0 0 0)
(0 0 0)
(0 0 0)
(0 0 0)
(0 0 0)
(0 0 0)
(0 0 0)
(0 0 0)
(0 0 0)
(0 0 0)
(0 0 0)
(0 0 0)
(0 0 0)
(0 0 0)
(0 0 0)
(0 0 0)
(0 0 0)
(0 0 0)
(0 0 0)
(0 0 0)
(0 0 0)
(0 0 0)
(0 0 0)
(0 0 0)
(0 0 0)
(0 0 0)
(0 0 0)
(0 0 0)
(0 0 0)
(0 0 0)
(0 0 0)
(-1.65343874904 -0.10484951475 0.275099352994)
(-0.704547153702 0.00499674126213 0.0258918899241)
(-1.28295460468 0.026563476934 0)
(-2.69288885996 0.0557560578187 0)
(-0.134722789993 0.00278942505947 0)
(-0.284335667322 0.00588714823804 0)
(-1.56312050069 0.0428539054415 0)
(-0.575037997585 0.015765018732 0)
(-0.348778944091 0.00956198826866 0)
(-2.68353727006 0.0555624338653 0)
(-1.25535846167 0.0259921009042 0)
(-0.283905236272 0.00587823619607 0)
(-0.133449307862 0.00276305770938 0)
(-0.128308926234 0.00351766776119 0)
(-0.128308851355 0.00351766570833 0)
(-0.0286295775228 0.000784897394317 0)
(-0.76084667268 0.0157532721472 0)
(-0.0790499056509 0.00163970578923 0)
(-0.0796157142233 0.00165144216746 0)
(-0.00596427536647 6.33883738786e-05 0)
(0 0 0)
(0 0 0)
(0 0 0)
(-0.0291170058206 0.000603964326283 0)
(0 0 0)
(0 0 0)
(0 0 0)
(0 0 0)
(0 0 0)
(0 0 0)
(0 0 0)
(0 0 0)
(0 0 0)
(0 0 0)
(0 0 0)
(0 0 0)
(0 0 0)
(0 0 0)
(0 0 0)
(0 0 0)
(0 0 0)
(0 0 0)
(0 0 0)
(0 0 0)
(0 0 0)
(0 0 0)
(0 0 0)
(0 0 0)
(0 0 0)
(0 0 0)
(0 0 0)
(0 0 0)
(0 0 0)
(0 0 0)
(0 0 0)
(0 0 0)
(0 0 0)
(0 0 0)
(0 0 0)
(0 0 0)
(0 0 0)
(0 0 0)
(0 0 0)
(0 0 0)
(0 0 0)
(0 0 0)
(0 0 0)
(0 0 0)
(0 0 0)
(-0.0778224192669 0.00213354926573 0)
(0 0 0)
(0 0 0)
(-0.0487019068128 0.00101020738596 0)
(-0.102950374579 0.00213546523314 0)
(0 0 0)
(0 0 0)
(-0.047201750149 0.00129406487643 0)
(0 0 0)
(0 0 0)
(-0.102860255884 0.00213359593115 0)
(-0.0484404798971 0.00100478469476 0)
(0 0 0)
(0 0 0)
(0 0 0)
(0 0 0)
(0 0 0)
(-0.0293653963884 0.000609116608864 0)
(0 0 0)
(0 0 0)
(0 0 0)
(0 0 0)
(0 0 0)
(0 0 0)
(0 0 0)
(0 0 0)
(0 0 0)
(0 0 0)
(0 0 0)
(0 0 0)
(0 0 0)
(0 0 0)
(0 0 0)
(0 0 0)
(0 0 0)
(0 0 0)
(0 0 0)
(0 0 0)
(0 0 0)
(0 0 0)
(0 0 0)
(0 0 0)
(0 0 0)
(0 0 0)
(0 0 0)
(0 0 0)
(0 0 0)
(0 0 0)
(0 0 0)
(0 0 0)
(0 0 0)
(0 0 0)
(0 0 0)
(0 0 0)
(0 0 0)
(0 0 0)
(0 0 0)
(0 0 0)
(0 0 0)
(0 0 0)
(0 0 0)
(0 0 0)
(0 0 0)
(0 0 0)
(0 0 0)
(0 0 0)
(0 0 0)
(0 0 0)
(0 0 0)
(0 0 0)
(0 0 0)
(0 0 0)
(0 0 0)
(0 0 0)
(0 0 0)
(0 0 0)
(0 0 0)
(0 0 0)
(0 0 0)
(0 0 0)
(0 0 0)
(0 0 0)
(0 0 0)
(0 0 0)
(0 0 0)
(0 0 0)
(0 0 0)
(0 0 0)
(0 0 0)
(0 0 0)
(0 0 0)
(0 0 0)
(0 0 0)
(0 0 0)
(0 0 0)
(0 0 0)
(0 0 0)
(0 0 0)
(0 0 0)
(0 0 0)
(0 0 0)
(0 0 0)
(0 0 0)
(0 0 0)
(0 0 0)
(0 0 0)
(0 0 0)
(0 0 0)
(0 0 0)
(0 0 0)
(0 0 0)
(0 0 0)
(0 0 0)
(0 0 0)
(0 0 0)
(0 0 0)
(0 0 0)
(0 0 0)
(0 0 0)
(0 0 0)
(0 0 0)
(0 0 0)
(0 0 0)
(0 0 0)
(0 0 0)
(0 0 0)
(0 0 0)
(0 0 0)
(0 0 0)
(0 0 0)
(0 0 0)
(0 0 0)
(0 0 0)
(0 0 0)
(0 0 0)
(0 0 0)
(0 0 0)
(0 0 0)
(0 0 0)
(0 0 0)
(0 0 0)
(0 0 0)
(0 0 0)
(0 0 0)
(0 0 0)
(0 0 0)
(0 0 0)
(0 0 0)
(0 0 0)
(0 0 0)
(0 0 0)
(0 0 0)
(0 0 0)
(0 0 0)
(0 0 0)
(0 0 0)
(0 0 0)
(0 0 0)
(0 0 0)
(0 0 0)
(0 0 0)
(0 0 0)
(0 0 0)
(0 0 0)
(0 0 0)
(0 0 0)
(0 0 0)
(0 0 0)
(0 0 0)
(0 0 0)
(0 0 0)
(0 0 0)
(0 0 0)
(0 0 0)
(0 0 0)
(0 0 0)
(0 0 0)
(0 0 0)
(0 0 0)
(0 0 0)
(0 0 0)
(0 0 0)
(0 0 0)
(0 0 0)
(0 0 0)
(0 0 0)
(0 0 0)
(0 0 0)
(0 0 0)
(0 0 0)
(0 0 0)
(-0.00209831999944 3.05251624676e-05 0)
(-0.00325812818285 4.73973903638e-05 0)
(-0.00127839806638 1.85909111717e-05 0)
(-0.00194379112829 2.82771645935e-05 0)
(-0.120409514156 0.00210834675518 0)
(-0.0720033321787 0.00126076409182 0)
(-0.00285689593494 4.15604924845e-05 0)
(-0.00155463565452 2.26159527359e-05 0)
(-0.00168388636936 2.44962184106e-05 0)
(-0.000954576658209 1.3881787157e-05 0)
(-0.0105429078738 0.000184555719528 0)
(-0.0278600248547 0.000487823519707 0)
(-0.00638964893684 0.000111852087791 0)
(-0.000580387398505 8.44019625385e-06 0)
(-0.000141289045243 2.05467464221e-06 0)
(-0.000349863371155 5.08783533582e-06 0)
(-8.33008361308e-05 1.21138985248e-06 0)
(0 0 0)
(-0.000840416014095 1.24771289603e-05 0)
(0 0 0)
(-1.78474187195e-05 1.89971437015e-07 0)
(0 0 0)
(-1.09604192142e-05 1.16664858998e-07 0)
(0 0 0)
(0 0 0)
(0 0 0)
(0 0 0)
(0 0 0)
(0 0 0)
(0 0 0)
(0 0 0)
(0 0 0)
(0 0 0)
(0 0 0)
(0 0 0)
(0 0 0)
(0 0 0)
(0 0 0)
(0 0 0)
(0 0 0)
(0 0 0)
(0 0 0)
(0 0 0)
(0 0 0)
(0 0 0)
(0 0 0)
(0 0 0)
(0 0 0)
(0 0 0)
(0 0 0)
(0 0 0)
(0 0 0)
(0 0 0)
(0 0 0)
(0 0 0)
(0 0 0)
(0 0 0)
(0 0 0)
(0 0 0)
(0 0 0)
(0 0 0)
(0 0 0)
(0 0 0)
(0 0 0)
(0 0 0)
(0 0 0)
(-0.0405004381542 0.000709154654137 0)
(-0.00553153312809 9.6830598234e-05 0)
(-0.00910998016166 0.00015947203217 0)
(-0.00044355073644 6.45026972283e-06 0)
(-0.000682281260722 9.92197238543e-06 0)
(-9.58293571101e-05 1.39358398024e-06 0)
(-0.000154643182951 2.2488751768e-06 0)
(-0.0260668054154 0.000456424602332 0)
(-0.0091545678475 0.000160252548565 0)
(-0.00567402694068 9.93249810385e-05 0)
(-0.000622632239065 9.0545354796e-06 0)
(-0.000362285495098 5.26848220072e-06 0)
(-0.000145645501713 2.11802775373e-06 0)
(-8.30886647792e-05 1.20830438258e-06 0)
(-0.00230722373593 4.03884148275e-05 0)
(-0.00215840790019 3.77833637381e-05 0)
(-0.000470493721084 6.98512490784e-06 0)
(-0.000127485838635 1.85394359084e-06 0)
(-2.76689570556e-05 3.67338264904e-07 0)
(-2.83357188055e-05 3.76190318988e-07 0)
(-3.62675432225e-06 3.87484471017e-08 0)
(0 0 0)
(0 0 0)
(0 0 0)
(0 0 0)
(0 0 0)
(0 0 0)
(0 0 0)
(0 0 0)
(0 0 0)
(0 0 0)
(0 0 0)
(0 0 0)
(0 0 0)
(0 0 0)
(0 0 0)
(0 0 0)
(0 0 0)
(0 0 0)
(0 0 0)
(0 0 0)
(0 0 0)
(0 0 0)
(0 0 0)
(0 0 0)
(0 0 0)
(0 0 0)
(0 0 0)
(0 0 0)
(0 0 0)
(0 0 0)
(0 0 0)
(0 0 0)
(0 0 0)
(0 0 0)
(0 0 0)
(0 0 0)
(0 0 0)
(0 0 0)
(0 0 0)
(0 0 0)
(0 0 0)
(0 0 0)
(0 0 0)
(0 0 0)
(0 0 0)
(0 0 0)
(0 0 0)
(0 0 0)
(0 0 0)
(-0.0012615032042 2.20828669211e-05 0)
(0 0 0)
(0 0 0)
(-1.08032701761e-05 1.14992133712e-07 0)
(-1.9132009118e-05 2.03644870009e-07 0)
(0 0 0)
(0 0 0)
(-0.000718474152933 1.0666734701e-05 0)
(0 0 0)
(0 0 0)
(-1.80776779196e-05 1.92422361253e-07 0)
(-1.00354113866e-05 1.06818893651e-07 0)
(0 0 0)
(0 0 0)
(0 0 0)
(0 0 0)
(0 0 0)
(0 0 0)
(0 0 0)
(0 0 0)
(0 0 0)
(0 0 0)
(0 0 0)
(0 0 0)
(0 0 0)
(0 0 0)
(0 0 0)
(0 0 0)
(0 0 0)
(0 0 0)
(0 0 0)
(0 0 0)
(0 0 0)
(0 0 0)
(0 0 0)
(0 0 0)
(0 0 0)
(0 0 0)
(0 0 0)
(0 0 0)
(0 0 0)
(0 0 0)
(0 0 0)
(0 0 0)
(0 0 0)
(0 0 0)
(0 0 0)
(0 0 0)
(0 0 0)
(0 0 0)
(0 0 0)
(0 0 0)
(0 0 0)
(0 0 0)
(0 0 0)
(0 0 0)
(0 0 0)
(0 0 0)
(0 0 0)
(0 0 0)
(0 0 0)
(0 0 0)
(0 0 0)
(0 0 0)
(0 0 0)
(0 0 0)
(0 0 0)
(0 0 0)
(0 0 0)
(0 0 0)
(0 0 0)
(0 0 0)
(0 0 0)
(0 0 0)
(0 0 0)
(0 0 0)
(0 0 0)
(0 0 0)
(0 0 0)
(0 0 0)
(0 0 0)
(0 0 0)
(0 0 0)
(0 0 0)
(0 0 0)
(0 0 0)
(0 0 0)
(0 0 0)
(0 0 0)
(0 0 0)
(0 0 0)
(0 0 0)
(0 0 0)
(0 0 0)
(0 0 0)
(0 0 0)
(0 0 0)
(0 0 0)
(0 0 0)
(0 0 0)
(0 0 0)
(0 0 0)
(0 0 0)
(0 0 0)
(0 0 0)
(0 0 0)
(0 0 0)
(0 0 0)
(0 0 0)
(0 0 0)
(0 0 0)
(0 0 0)
(0 0 0)
(0 0 0)
(0 0 0)
(0 0 0)
(0 0 0)
(0 0 0)
(0 0 0)
(0 0 0)
(0 0 0)
(0 0 0)
(0 0 0)
(0 0 0)
(0 0 0)
(0 0 0)
(0 0 0)
(0 0 0)
(0 0 0)
(0 0 0)
(0 0 0)
(0 0 0)
(0 0 0)
(0 0 0)
(0 0 0)
(0 0 0)
(0 0 0)
(0 0 0)
(0 0 0)
(0 0 0)
(0 0 0)
(0 0 0)
(0 0 0)
(0 0 0)
(0 0 0)
(0 0 0)
(0 0 0)
(0 0 0)
(0 0 0)
(0 0 0)
(0 0 0)
(0 0 0)
(0 0 0)
(0 0 0)
(0 0 0)
(0 0 0)
(0 0 0)
(0 0 0)
(0 0 0)
(0 0 0)
(0 0 0)
(0 0 0)
(0 0 0)
(0 0 0)
(0 0 0)
(0 0 0)
(0 0 0)
(0 0 0)
(0 0 0)
(0 0 0)
(0 0 0)
(0 0 0)
(0 0 0)
(0 0 0)
(0 0 0)
(0 0 0)
(0 0 0)
(0 0 0)
(0 0 0)
(0 0 0)
(0 0 0)
(0 0 0)
(0 0 0)
(0 0 0)
(0 0 0)
(0 0 0)
(0 0 0)
(0 0 0)
(0 0 0)
(0 0 0)
(0 0 0)
(0 0 0)
(0 0 0)
(0 0 0)
(0 0 0)
(0 0 0)
(-7.17081311319 0.167357444064 0)
(-5.57146635294 0.129631640678 0)
(-6.34823192224 0.131439656261 0)
(-3.84995866466 0.0797130996002 0)
(-4.91691376827 0.114402126563 0)
(-5.60840516742 0.116121599905 0)
(-8.13398711819 0.190100909741 0)
(-5.57161117141 0.129635010178 0)
(-2.63182158857 0.061234750223 0)
(-3.00118317212 0.0621392679651 0)
(-3.01580237079 0.062441957355 0)
(-3.82918421163 0.0890938579481 0)
(-3.8294134179 0.089099190904 0)
(-4.37577090362 0.0906000017791 0)
(-1.59616667494 0.0371381054393 0)
(-3.37916123157 0.0786231463701 0)
(-1.41703325516 0.0293395651341 0)
(-2.33542972319 0.0483548937402 0)
(-2.98215248477 0.0693859201264 0)
(-1.25092095689 0.0259002227074 0)
(-1.80869280618 0.0420829636392 0)
(-0.753967279971 0.0175426017728 0)
(-0.356148099781 0.00828651912696 0)
(-0.669890982377 0.0138700415383 0)
(-0.246855648649 0.00511112731891 0)
(-0.314300632704 0.00731285160899 0)
(-0.59141221731 0.0122451447118 0)
(-0.854356211341 0.0198783570399 0)
(-1.24305892801 0.0289223263839 0)
(-1.59618164986 0.0371384538618 0)
(-1.82019674255 0.0376870342953 0)
(-0.670588568736 0.0138844850105 0)
(-2.32242264799 0.0540359465776 0)
(-0.854351540439 0.0198782483617 0)
(-0.974767680618 0.0201824902499 0)
(-0.587175002829 0.0136618358902 0)
(-0.16822720711 0.0039141524839 0)
(-0.192332798391 0.00398223587574 0)
(-0.316910911387 0.00656161617413 0)
(-0.244771269683 0.00569510776334 0)
(-0.403562820011 0.00938972025686 0)
(-0.460804660258 0.00954092523552 0)
(-0.0364315144803 0.000853123222607 0)
(-0.131019533647 0.00304843932128 0)
(-0.0329385082977 0.000683232475734 0)
(-0.0895005143967 0.00185647927581 0)
(-0.115624601444 0.00269024451346 0)
(-0.0290449098204 0.000602468863032 0)
(-0.0412823215531 0.000966715430377 0)
(-0.00914073963204 0.00016076862179 0)
(0 0 0)
(-0.00858865932344 0.00014078919111 0)
(0 0 0)
(0 0 0)
(-0.0059236959544 6.2957095511e-05 0)
(-0.0103576369017 0.000182171583123 0)
(-0.0283733283082 0.000664423250795 0)
(-0.0618874398525 0.00143993876248 0)
(-0.0697292283394 0.00144637009299 0)
(-0.0141719987758 0.000232313818598 0)
(-0.0900468550237 0.00209512555854 0)
(-0.0195003580712 0.000456643336326 0)
(-0.0226330769019 0.000469470354437 0)
(-0.0052463695168 5.57333390826e-05 0)
(0 0 0)
(0 0 0)
(0 0 0)
(0 0 0)
(0 0 0)
(-0.00461363483118 4.90337537502e-05 0)
(0 0 0)
(0 0 0)
(0 0 0)
(0 0 0)
(0 0 0)
(0 0 0)
(0 0 0)
(0 0 0)
(0 0 0)
(0 0 0)
(0 0 0)
(0 0 0)
(0 0 0)
(0 0 0)
(0 0 0)
(0 0 0)
(0 0 0)
(0 0 0)
(0 0 0)
(0 0 0)
(0 0 0)
(0 0 0)
(0 0 0)
(0 0 0)
(0 0 0)
(0 0 0)
(0 0 0)
(0 0 0)
(0 0 0)
(0 0 0)
(0 0 0)
(0 0 0)
(0 0 0)
(0 0 0)
(0 0 0)
(0 0 0)
(0 0 0)
(0 0 0)
(0 0 0)
(0 0 0)
(0 0 0)
(0 0 0)
(0 0 0)
(0 0 0)
(0 0 0)
(0 0 0)
(0 0 0)
(0 0 0)
(0 0 0)
(0 0 0)
(0 0 0)
(0 0 0)
(0 0 0)
(0 0 0)
(0 0 0)
(0 0 0)
(0 0 0)
(0 0 0)
(0 0 0)
(0 0 0)
(0 0 0)
(0 0 0)
(0 0 0)
(0 0 0)
(0 0 0)
(0 0 0)
(0 0 0)
(0 0 0)
(0 0 0)
(0 0 0)
(0 0 0)
(0 0 0)
(0 0 0)
(0 0 0)
(0 0 0)
(0 0 0)
(0 0 0)
(0 0 0)
(0 0 0)
(0 0 0)
(0 0 0)
(0 0 0)
(0 0 0)
(0 0 0)
(0 0 0)
(0 0 0)
(0 0 0)
(0 0 0)
(0 0 0)
(0 0 0)
(0 0 0)
(0 0 0)
(0 0 0)
(0 0 0)
(0 0 0)
(0 0 0)
(0 0 0)
(0 0 0)
(0 0 0)
(0 0 0)
(0 0 0)
(0 0 0)
(0 0 0)
(0 0 0)
(0 0 0)
(0 0 0)
(0 0 0)
(0 0 0)
(0 0 0)
(0 0 0)
(0 0 0)
(0 0 0)
(0 0 0)
(0 0 0)
(0 0 0)
(0 0 0)
(0 0 0)
(0 0 0)
(0 0 0)
(0 0 0)
(0 0 0)
(0 0 0)
(0 0 0)
(0 0 0)
(0 0 0)
(0 0 0)
(0 0 0)
(0 0 0)
(0 0 0)
(0 0 0)
(0 0 0)
(0 0 0)
(0 0 0)
(0 0 0)
(0 0 0)
(0 0 0)
(0 0 0)
(0 0 0)
(0 0 0)
(0 0 0)
(0 0 0)
(0 0 0)
(0 0 0)
(0 0 0)
(0 0 0)
(0 0 0)
(0 0 0)
(0 0 0)
(0 0 0)
(0 0 0)
(0 0 0)
(0 0 0)
(0 0 0)
(0 0 0)
(0 0 0)
(0 0 0)
(0 0 0)
(0 0 0)
(0 0 0)
(0 0 0)
(0 0 0)
(0 0 0)
(0 0 0)
(0 0 0)
(0 0 0)
(0 0 0)
(0 0 0)
(0 0 0)
(-1.46744554556 0.00946345939799 0.0467922737576)
(-2.3579306405 -0.032486602164 0.16741651924)
(-1.8637635228 0.0385890811473 0)
(-0.686809142769 0.0142203307548 0)
(-2.76149149921 0.0144454666044 0.095202809049)
(-0.997046384107 0.0206437691012 0)
(-1.24815530948 -0.014708786729 0.0831654541616)
(-1.64300918946 0.0333428807453 0.00912745078371)
(-3.37939548622 0.0786285967871 0)
(-2.38713215292 0.0494253885921 0)
(-1.44385400538 0.0298948867154 0)
(-3.10534588462 0.0588024541282 0.0254574811433)
(-1.80878217395 0.0420850429643 0)
(-1.27757660134 0.0264521257863 0)
(-0.637678522166 0.00958413421301 0.00980571716893)
(-0.168229066735 0.00391419575192 0)
(-0.323875862153 0.00670582494687 0)
(-0.195854004131 0.0040551421712 0)
(-0.244766007484 0.00569498532744 0)
(-0.470562710279 0.00974296491466 0)
(-0.511225567279 0.000446553145505 0.0215043042397)
(-0.753981283302 0.0175429275891 0)
(-0.356137305636 0.00828626797895 0)
(-0.682129718349 0.0141234436302 0)
(-0.251268327216 0.00520249149104 0)
(-0.854368332028 0.0198786390526 0)
(-0.314284943458 0.00731248656636 0)
(-0.603340039772 0.0124921093633 0)
(-1.59622532243 0.0371394699942 0)
(-3.37933743887 0.0786272461959 0)
(-2.36136198164 0.0488918191675 0)
(-1.43954650045 0.0298057001554 0)
(-2.98226436913 0.0693885233466 0)
(-1.8087829718 0.0420850615281 0)
(-1.26624535275 0.0262175131511 0)
(-1.24312074897 0.0289237647761 0)
(-1.59619584718 0.0371387841916 0)
(-1.83287730603 0.0379495843921 0)
(-0.674007172265 0.013955266935 0)
(-2.32258572311 0.0540397408561 0)
(-0.854348192247 0.0198781704591 0)
(-0.983578924161 0.0203649263734 0)
(-0.753975718731 0.0175427981179 0)
(-0.356139686199 0.00828632336766 0)
(-0.68032631699 0.0140861043431 0)
(-0.250079583583 0.00517787864507 0)
(-0.854366442038 0.0198785950781 0)
(-0.314291765015 0.00731264528393 0)
(-0.598812133809 0.0123983594168 0)
(-0.587187774345 0.0136621330459 0)
(-0.168229995717 0.00391421736658 0)
(-0.319261367088 0.00661028217961 0)
(-0.194394178472 0.00402491659261 0)
(-0.403552584508 0.0093894821068 0)
(-0.244773288284 0.00569515473025 0)
(-0.465587356531 0.00963995059595 0)
(-0.277346610665 0.00645304016921 0)
(-0.968059219039 0.0225238917168 0)
(-0.407318550534 0.0084334994258 0)
(-0.408221299626 0.00845219077667 0)
(-0.518152091153 0.0120558756783 0)
(-0.518156284081 0.0120559732354 0)
(-0.218513429094 0.00452430383143 0)
(-0.131009295942 0.00304820112 0)
(-0.102031114655 0.00237396404376 0)
(-0.192472974787 0.00398513821729 0)
(-0.0423914440211 0.000879311564043 0)
(-0.244758334499 0.00569480679965 0)
(-0.0530047894595 0.0012412225361 0)
(-0.101642275291 0.00210833176653 0)
(-0.131008969746 0.00304819353036 0)
(-0.102035788324 0.00237407278629 0)
(-0.193357797688 0.00400345840777 0)
(-0.0425729177175 0.000883075812311 0)
(-0.244757766195 0.00569479357688 0)
(-0.0530070083667 0.00124127449665 0)
(-0.101879641515 0.00211325537483 0)
(-0.061884253129 0.00143986461679 0)
(-0.00914142003713 0.000160780588851 0)
(-0.0200705207791 0.000416316108708 0)
(-0.0201058176133 0.000417048259151 0)
(-0.0250375856675 0.000586309574985 0)
(-0.0250388460868 0.000586339090446 0)
(-0.0481324904903 0.000998396173369 0)
(0 0 0)
(-0.0364301032209 0.000853090174898 0)
(-0.00861502651472 0.000141221414044 0)
(-0.0141950576802 0.000232691810596 0)
(-0.0103584810666 0.000182186430416 0)
(-0.0194994703196 0.000456622547689 0)
(0 0 0)
(0 0 0)
(0 0 0)
(0 0 0)
(0 0 0)
(0 0 0)
(0 0 0)
(0 0 0)
(0 0 0)
(0 0 0)
(-0.00525552594046 5.58557784095e-05 0)
(0 0 0)
(-0.00806684884811 0.000141880878759 0)
(0 0 0)
(0 0 0)
(0 0 0)
(0 0 0)
(0 0 0)
(0 0 0)
(0 0 0)
(0 0 0)
(0 0 0)
(0 0 0)
(0 0 0)
(0 0 0)
(0 0 0)
(0 0 0)
(0 0 0)
(0 0 0)
(0 0 0)
(0 0 0)
(0 0 0)
(0 0 0)
(0 0 0)
(0 0 0)
(0 0 0)
(0 0 0)
(0 0 0)
(0 0 0)
(0 0 0)
(0 0 0)
(0 0 0)
(0 0 0)
(0 0 0)
(0 0 0)
(0 0 0)
(0 0 0)
(0 0 0)
(0 0 0)
(0 0 0)
(0 0 0)
(0 0 0)
(0 0 0)
(0 0 0)
(0 0 0)
(0 0 0)
(0 0 0)
(0 0 0)
(0 0 0)
(0 0 0)
(0 0 0)
(0 0 0)
(0 0 0)
(0 0 0)
(0 0 0)
(0 0 0)
(0 0 0)
(0 0 0)
(0 0 0)
(0 0 0)
(0 0 0)
(0 0 0)
(0 0 0)
(0 0 0)
(0 0 0)
(0 0 0)
(0 0 0)
(0 0 0)
(0 0 0)
(0 0 0)
(0 0 0)
(0 0 0)
(0 0 0)
(0 0 0)
(0 0 0)
(0 0 0)
(0 0 0)
(0 0 0)
(0 0 0)
(0 0 0)
(0 0 0)
(0 0 0)
(0 0 0)
(0 0 0)
(0 0 0)
(0 0 0)
(0 0 0)
(0 0 0)
(0 0 0)
(0 0 0)
(0 0 0)
(0 0 0)
(0 0 0)
(0 0 0)
(0 0 0)
(0 0 0)
(0 0 0)
(0 0 0)
(0 0 0)
(0 0 0)
(0 0 0)
(0 0 0)
(0 0 0)
(0 0 0)
(0 0 0)
(0 0 0)
(0 0 0)
(0 0 0)
(0 0 0)
(0 0 0)
(0 0 0)
(0 0 0)
(0 0 0)
(0 0 0)
(0 0 0)
(0 0 0)
(0 0 0)
(0 0 0)
(0 0 0)
(0 0 0)
(0 0 0)
(0 0 0)
(0 0 0)
(0 0 0)
(0 0 0)
(0 0 0)
(0 0 0)
(0 0 0)
(0 0 0)
(0 0 0)
(0 0 0)
(0 0 0)
(0 0 0)
(0 0 0)
(0 0 0)
(0 0 0)
(0 0 0)
(0 0 0)
(0 0 0)
(0 0 0)
(0 0 0)
(0 0 0)
(0 0 0)
(0 0 0)
(0 0 0)
(0 0 0)
(0 0 0)
(0 0 0)
(0 0 0)
(0 0 0)
(0 0 0)
(0 0 0)
(0 0 0)
(0 0 0)
(0 0 0)
(0 0 0)
(0 0 0)
(0 0 0)
(0 0 0)
(0 0 0)
(0 0 0)
(0 0 0)
(0 0 0)
(0 0 0)
(0 0 0)
(0 0 0)
(0 0 0)
(0 0 0)
(0 0 0)
(0 0 0)
(0 0 0)
(0 0 0)
(0 0 0)
(0 0 0)
(0 0 0)
(0 0 0)
(0 0 0)
(0 0 0)
(0 0 0)
(0 0 0)
(-0.0283722711499 0.000664398495133 0)
(-0.0618888712925 0.00143997206788 0)
(-0.0708174061717 0.0014689418023 0)
(-0.0143784676676 0.000235698350126 0)
(-0.0900444232962 0.00209506897939 0)
(-0.0229898642016 0.000476871074223 0)
(-0.0195004144482 0.000456644656517 0)
(-0.0364299700455 0.000853087056305 0)
(-0.131010182577 0.00304822174938 0)
(-0.0908932756852 0.00188536885801 0)
(-0.0334185483559 0.000693189786321 0)
(-0.115616405696 0.0026900538225 0)
(-0.0412800863464 0.000966663088146 0)
(-0.0295037540627 0.00061198651589 0)
(-0.00524631526501 5.5732762754e-05 0)
(0 0 0)
(0 0 0)
(0 0 0)
(0 0 0)
(-0.00468646715165 4.98078163273e-05 0)
(0 0 0)
(-0.00914098336611 0.000160772908619 0)
(0 0 0)
(-0.00871060762303 0.000142788222834 0)
(0 0 0)
(-0.0103580226372 0.000182178367494 0)
(0 0 0)
(-0.00601419205535 6.39188889107e-05 0)
(-0.0364295898163 0.000853078152411 0)
(-0.131010486285 0.00304822881578 0)
(-0.0906201351022 0.00187970319413 0)
(-0.0334061625963 0.000692932872647 0)
(-0.115617636167 0.00269008245195 0)
(-0.0412800094513 0.000966661287481 0)
(-0.0294681956601 0.000611248939822 0)
(-0.0283717507504 0.000664386308846 0)
(-0.0618879495547 0.00143995062175 0)
(-0.0705089994281 0.00146254462422 0)
(-0.0143300702373 0.000234904997541 0)
(-0.0900447394638 0.00209507633568 0)
(-0.0194999130903 0.000456632916131 0)