/*--------------------------------*- C++ -*----------------------------------*\
| =========                 |                                                 |
| \\      /  F ield         | OpenFOAM: The Open Source CFD Toolbox           |
|  \\    /   O peration     | Version:  v1906                                 |
|   \\  /    A nd           | Web:      www.OpenFOAM.com                      |
|    \\/     M anipulation  |                                                 |
\*---------------------------------------------------------------------------*/
FoamFile
{
    version     2.0;
    format      ascii;
    class       volScalarField;
    location    "6.05";
    object      p_rgh;
}
// * * * * * * * * * * * * * * * * * * * * * * * * * * * * * * * * * * * * * //

dimensions      [1 -1 -2 0 0 0 0];


internalField   nonuniform List<scalar> 
28582
(
19553.8021935
19551.1079811
19554.2113692
19550.931066
19555.1030803
19549.7887168
19559.2092988
19550.6241817
765.835188814
864.527898526
0.368827643126
19555.3713819
18190.7628734
17957.1130754
19546.1716533
19545.8491784
17859.0115849
19528.979583
19526.4380553
19555.813081
19549.2514706
19548.5468158
19556.3245583
19548.7484579
19548.1883662
19557.7822149
19546.2139897
19560.8235081
19543.944992
893.856009602
0.0947085191151
-0.102055888983
19559.5815192
19560.360995
18311.3188377
18192.8457236
19558.9356981
19543.5301344
19543.1245141
19542.6507066
19526.5094618
17439.3665342
19523.0182663
19522.5238773
806.377384218
861.677755047
12.8262769164
13.0932536466
839.954050831
12.4603982135
19558.610797
19557.5987965
18129.761671
18240.9135041
19560.1439107
18180.5224285
19556.0935035
19553.6656739
19547.4324387
18049.4192855
17998.7034873
19548.6411807
18101.4567646
19552.3767182
19537.8875467
19542.5742822
17765.6921844
17891.5052626
19543.3717476
17778.2887422
19537.8085849
19529.9131772
17583.470629
17571.0798527
19533.1660908
17675.6068275
17674.010893
19533.6475559
19524.9957205
17542.1496605
17497.3745266
19531.5721876
17642.0585545
19531.3178564
17657.3091754
728.861841769
7.21263733057
688.06928245
727.950217672
5.11636117067
6.65184645353
895.589399158
9.19837829738
9.54471113563
943.903400553
8.71643781224
936.547091742
9.23329815005
19558.7006246
19559.4099216
18281.8981472
18308.160003
19558.6287965
19559.2598541
18281.8153685
19557.6977644
19555.6824794
18241.3865253
18197.202535
19557.2862712
19556.1812466
18244.1854619
18246.3023142
18209.7746002
19558.0227783
19558.3632065
18206.5020755
19557.3624215
18253.8308982
19527.5684559
17511.9704638
17497.8331774
19526.3796501
17460.3185076
19527.5469667
17444.1339788
19527.1279838
19530.2992446
17446.1459927
17419.6823708
19528.6519186
19528.9490746
17423.7033205
19521.4316886
19521.234853
17469.044243
17412.7797678
17359.7026541
19523.1980652
17418.6890367
17362.1389141
17371.3962118
19524.8159161
19524.2623779
17403.6228943
19526.0440423
17404.2266528
19546.4892021
19544.615089
992.973329363
-0.370794582575
19558.1683244
18163.7776034
19543.89515
19546.3515617
17444.3941076
17382.1502382
17481.2899067
19548.6116605
19550.3526207
17515.1474237
17567.7625646
774.492780992
998.621822879
1022.4390769
7.68190476592
6.68216053354
3.6762796448
1045.99896557
1049.71712796
19553.332667
19556.6642487
18149.7321811
18104.2438556
19555.6795257
18082.3608498
19554.1862737
19532.1830293
19531.7967458
17454.5590248
17425.7008578
19532.8522101
19530.5857868
17440.5374078
19529.7187672
19527.2886658
17410.688523
17399.9491101
19527.7490816
17426.8929539
19529.3652816
19531.9340847
19534.5726411
17495.9271104
17434.4865496
19534.464274
17458.3135269
19531.6468859
19538.4075252
19537.1967843
17520.8327429
17537.9652165
19536.6977823
17543.9244609
19538.3981489
19539.5753909
19539.8855046
17584.4312586
17551.5077087
19540.2515334
17571.5657291
19539.2167462
19571.2850663
19564.4822327
19564.6878074
19562.4767271
577.110862911
594.533452795
645.065518219
658.475201554
645.565869116
-0.0191622365154
0.467631192934
-0.0638772628109
0.197146856235
-0.139463781071
0.0405589999555
19575.240833
19574.0453997
18765.849005
18672.3274272
19574.9787876
18616.7569161
19570.6376321
19567.1432766
18566.612506
18352.1815873
19572.2650382
19567.2316244
19567.8625738
18541.1280259
18563.8007049
18347.5767768
18372.244716
19567.9437164
19566.665223
18561.6925358
18480.973852
18378.4007408
18381.5559915
19564.764612
19563.2047516
18319.0966061
18329.3771517
18302.4235055
19564.1945228
19563.2671291
19563.1473516
18335.0191414
18347.8414567
18307.2893934
18325.3557461
18317.1293038
18328.5782279
503.240700607
517.28468974
545.45503507
1.08134195317
1.35082166415
1.48142689095
1.74004506931
2.55660610801
8.69571326584
3.33587914683
9.03484057956
556.35474262
583.842982953
598.653017627
619.747939802
633.934325775
2.28707773916
2.25851469347
2.80653552694
2.29559148515
601.404260319
627.374029274
631.881767003
2.95571077812
6.45876987628
2.51524492026
3.99735378768
655.612525762
653.9814564
2.86088566062
2.07546213253
1.93837693143
659.222313579
661.755255333
661.725438571
2.15117097153
2.63665603437
2.00126864873
2.18719444886
19573.8767003
19572.9324996
18791.5614317
18787.9460297
19573.2590498
18816.3536218
19573.5628841
19573.0755366
19569.8700345
18757.4254065
18723.9884324
19572.350207
19571.0153808
18795.8404575
19571.6411204
19569.5543945
18699.9914838
18590.2015423
19571.3235414
19569.744675
18637.2805195
19564.2202423
19566.8729635
18618.2165501
18480.3735313
19567.3463887
19563.8066827
18518.8251169
19560.8394271
19560.527926
18425.9920714
18397.0556306
19561.4593919
19559.9080309
18447.3436344
19565.7839594
19566.705017
18540.8975477
18470.5599654
19567.7270346
19564.5618625
18475.5076347
19567.0640575
19569.986108
18550.2396763
18491.9395502
19569.0981161
19567.9930959
18482.0360266
19563.308945
19561.0211654
18419.7859726
18356.3617494
19562.9187687
19561.2549278
18421.6295309
19563.845944
19562.7470742
18438.886073
18367.4348776
19564.6973004
19562.005574
18427.9803218
19568.8453162
19570.444085
18549.7663074
18497.9653472
19570.3281061
19568.8353653
18498.3049767
19568.2284935
19567.9428624
18519.2775951
18472.3124612
19569.6639567
18490.0994902
19566.6010828
19566.5544823
19563.4984234
18449.4178552
18386.9285623
19565.9213449
19564.2493185
18450.2416312
19566.0730863
19563.4585373
18421.7861727
18387.0532411
19564.300049
18440.6209537
19564.9732659
19559.2771446
19559.5431127
18322.2295256
18304.8542674
19559.7753683
19559.047941
18295.2566618
19559.5184548
19560.9231132
18327.8476648
18305.5367243
19560.2836485
19559.9677969
18299.1931755
19559.0021012
19559.3720954
18301.817709
18301.3516037
19559.6276778
19558.9015196
18298.3388948
19561.3292233
19561.7644297
18348.201399
18312.7513225
19562.6264183
19560.5709291
18321.9729731
19561.6495623
19562.5509233
18351.5300494
18333.0354909
19563.0288328
18329.9875635
19561.6175689
19561.0669991
19559.9897083
18306.7340435
18317.44101
19560.4108672
19560.4588947
18313.8158768
19561.3722596
19560.8689856
18330.1425136
18324.4630126
19560.8311667
18323.7688753
19561.2810451
19560.0930888
19559.8102541
18322.8933051
18330.5354053
19560.1944367
19559.5907576
18335.7188699
19560.387739
18326.9759469
19560.3887666
19552.9146698
19550.5372629
19549.2632173
19548.3525424
19548.3084155
19550.958624
19553.2341607
19550.4173727
19548.9057704
19548.4766367
19548.7912745
19551.2785028
19545.9679645
19548.6631031
19543.1903813
19546.2037003
19548.3901192
19550.2108692
19553.6109333
19548.3858618
19547.4990466
19549.5111023
19548.9418718
19548.6960837
19549.1455816
19549.5087997
19549.624957
19549.9005337
19551.9787549
19549.9184867
19548.9112838
19548.8148333
19548.5261889
19548.359902
19548.3670079
19549.8613628
19554.4295839
19551.6305715
19550.0535419
19549.3711014
19549.0924008
19548.8041229
19548.6809083
19550.7168826
19548.79556
19548.4738497
19548.2450989
19550.7271492
19544.4751719
19547.3097601
19547.0467376
19544.6548111
19544.1185199
19548.6312282
19554.9020958
19534.3657587
19548.0255954
19549.4724112
19551.1107847
19549.1630962
19547.4212962
19547.8764953
19548.5897698
19543.1145368
19551.9371109
19550.8806046
19549.8917448
19548.5643848
19547.5815573
19547.6018903
19547.3666522
19547.0259389
19554.8466333
19552.250097
19550.224223
19549.2020969
19548.7239436
19548.6287337
19548.5741111
19549.9916168
19548.4539167
19548.5339
19548.5873673
19550.8648193
19543.4952212
19547.6669836
19549.4319182
19542.9566288
19541.6315073
19547.7000823
19554.6107578
19530.2295459
19547.544932
19551.2864036
19547.9249481
19544.3558324
19544.4778943
19547.0145162
19547.4656725
19538.8265421
19553.6488379
19552.4578567
19549.9955887
19546.2156007
19545.755671
19547.1099967
19546.0963175
19544.881367
19559.1126803
19556.4099869
19553.167259
19549.3631466
19546.6054466
19546.6856067
19547.7609245
19547.4804517
19548.1403923
19553.8636257
19549.454016
19546.6817813
19546.9669816
19548.0235972
19547.8658637
19549.5808071
19547.8577079
19548.0939142
19550.3422244
19547.0764337
19553.0488821
19555.1230835
19547.1207196
19539.4461161
19546.7719334
19553.533784
19556.932344
19549.9882199
19549.8269072
19554.2488771
19552.6491057
19543.0921602
19539.8294745
19546.5200252
19550.7095463
19547.5600499
19562.3911555
19557.4103924
19555.231508
19556.4809721
19553.8469046
19543.7559367
19541.0079096
19547.0427387
19549.9915903
19547.8235635
19560.4121102
19559.008383
19557.7148914
19551.8130861
19543.8314016
19543.3500036
19548.4689428
19551.0666451
19549.5641562
19557.4922924
19550.1492123
19544.134111
19544.8214301
19549.1860712
19551.34493
19550.3225178
19548.8246094
19551.1253336
19550.9705408
722.253966202
761.582089234
879.51250756
992.38057508
1048.12337557
1145.3745074
1172.87240156
1195.94382047
613.26888611
635.831861574
706.353588764
755.868499194
869.107576077
1013.2129133
1067.86625592
1164.39454238
1188.41218363
1201.56940304
662.080927941
651.615245091
661.11924177
725.225444377
850.179540343
973.151136566
1055.23609806
1152.69060106
1157.29071961
1176.14914165
650.463046205
669.423000356
740.934265885
870.501180069
923.258374048
994.078109724
1070.63296984
1089.04962717
1131.508113
773.993388697
865.045823965
894.368899075
969.479348701
1029.23091031
1044.32364159
1078.99674152
1035.4478408
1043.81162956
1043.44176495
0.282664723181
-0.122784406194
-0.185686997238
-0.0308941013238
0.204128760519
0.927608697748
0.133829266509
-0.188854363453
-0.369807837332
1.351466349
0.163202060363
-0.0590652198346
-0.184274119025
-0.0423136564653
0.243456111383
0.891932463772
1.48092982577
-0.217713026315
-0.423915102712
1.6984508482
0.3279170355
-0.0254898298195
-0.145931730678
-0.0667867972681
0.00646182531115
-0.202387075244
0.547258870051
-0.154851810429
-0.402548056615
0.954188649627
-0.077332885631
-0.0879136035933
0.0638919333272
-0.0725713202351
-0.183614195272
0.458953426501
-0.126383491532
-0.367720584268
0.705016581144
0.18783140198
0.347633477002
0.665826577901
0.619513202387
-0.158687670389
-0.329782377581
0.998147240534
-0.100595813019
-0.257650458428
1.30006042332
19547.6480979
19546.0341103
19547.8201779
19545.520582
19547.6264552
19546.0636014
19547.7522062
19548.8908335
19549.1424589
19549.5318126
19548.9519435
19544.5559548
19548.5988042
19546.8190769
19548.372593
19549.6980306
19549.2618816
19547.5321559
19548.7753138
19549.4628428
19549.5914722
19549.596895
19549.7323002
19549.9261141
19549.5526559
19548.861657
19550.1627583
19550.5884504
19546.2887723
19545.7763693
19547.1106406
19543.4370585
19545.7452968
19544.9708227
19546.959736
19547.1170199
19547.5240975
19548.1630496
19546.9719738
19546.6914949
19547.9051925
19547.3146871
19549.0614053
19549.520323
19549.8540714
19547.6056526
19549.2609824
19549.5271556
19549.7930621
19548.9367619
19550.2412577
19553.0270509
19550.1856127
19546.0357988
19549.9362964
19552.145511
19546.1539074
19545.1921892
19547.4858503
19544.6867198
19547.7844234
19546.2684177
19548.8750749
19547.9257245
19548.9910197
19549.346649
19549.7540574
19550.7101736
19550.7499004
19552.7590817
19549.7311434
19549.7923761
19550.4485757
19548.5369496
19550.7983998
19550.5466861
19551.7183228
19547.7806214
19550.8616521
19552.1775974
19552.3325399
19551.8437114
19552.5598087
19553.7781633
19544.379707
19546.7349614
17966.8104051
18012.5415923
19550.2388119
19548.6607257
19551.1916958
17970.7813174
18025.8904342
18004.2401089
18041.0520308
19555.1387568
19553.4739057
19554.7581314
18053.2348497
18069.7537423
18062.7491309
18063.0004719
19552.4907716
19553.1590391
19549.4537217
18067.3833055
17782.6561419
17996.7793583
17508.9877424
19541.6325646
19544.5092266
19540.4005345
17537.3628499
17002.5775613
17306.0309878
16969.2090111
19542.5538532
19539.3592883
19542.5367512
17049.0767724
17293.971289
17006.3081586
17237.5242661
19550.4954194
19546.2872942
19549.6437407
17332.4037098
17441.6701187
17282.761725
17391.0808362
19555.4634809
19551.8473339
19552.4177838
17440.8857655
17411.7595778
17387.4812146
17291.5086351
19538.8627336
19550.4311493
19540.5268344
17388.7761051
16851.1048665
17258.136993
16825.6926147
19562.7701212
19557.9487443
18429.5815107
18275.4867764
18365.6579065
18309.3128658
19548.8707584
19554.4174748
19552.5155448
18212.3254166
18042.5439927
18281.6164535
18193.8991406
19552.1026404
19552.369654
19553.7503724
18030.861408
18059.2617953
18180.1979148
18164.593623
19554.9235759
19555.6118156
19556.1882072
18082.8899067
18097.0706389
18171.8819377
18198.0285014
19547.855504
19554.240531
19549.6243179
18022.701393
17535.9951806
18121.3038775
17578.614494
19540.0689785
19544.3564705
19540.8859989
17330.8170075
17000.8207212
17390.2901804
17112.9679164
19543.0067608
19540.4368133
19543.6254605
17029.2391199
17228.2347024
17121.6559629
17253.9960432
19549.3753804
19546.9568891
19549.2090202
17273.4670539
17373.6064975
17290.6822965
17384.9428392
19550.1659068
19550.137225
19549.5646975
17372.200675
17261.0441497
17387.1581297
17263.6194568
19543.0232015
19547.0987656
19545.8452015
17231.2944585
16847.4197103
17230.0299533
16869.3566301
19559.8182483
19562.2106082
19560.7696682
18333.873218
18306.2277223
18322.1008994
18312.43086
19555.8340727
19559.1843386
19558.0784822
18290.0390695
18235.2777107
18303.815166
18294.9771694
19555.5245356
19557.4381838
19557.2159624
18226.4374941
18195.0205718
18292.4936399
18256.0109119
19556.3725415
19557.2206677
19556.1333502
18197.2901111
18206.3983337
18250.364229
18152.1242481
19548.8083391
19553.2103124
19548.2596959
18131.5020967
17580.2208878
18032.7719058
17535.4175245
19540.8119448
19543.8490168
19541.6052208
17394.7201093
17134.190696
17384.4931806
17254.8630608
19544.0266606
19542.3309301
19545.0934753
17142.2057697
17266.172067
17272.3291103
17401.340657
19549.021805
19547.9277275
19549.7217487
17303.0928941
17400.8603456
17434.0984734
17498.3998639
19549.7165796
19550.6670134
19550.4731523
17401.8206443
17305.2879655
17497.757141
17414.6761818
19547.610697
19548.8072799
19548.9383924
17264.5634558
16862.953708
17365.7935623
16917.028677
18327.0690182
18321.1170474
19559.6787581
19560.7881853
18317.6704301
18305.4420911
18327.5341264
19558.5057359
19560.1823844
19559.2705433
18303.5048414
18270.6213731
18316.9643345
18211.065315
19555.4418185
19557.5836979
19554.5427969
18255.1216948
18074.7002277
18154.7687123
17944.6883281
19547.1369068
19550.5682113
19546.4436582
17963.6161266
17527.6173865
17850.9005798
17532.0603201
19542.45923
19544.0165016
19543.3227323
17409.2157955
17308.1732497
17460.0072295
17421.9473119
19545.9159906
19544.420446
19546.7147112
17328.5700901
17441.4935233
17436.7215634
17528.1041582
19550.2523828
19549.0516307
19550.7871951
17469.3174196
17526.6420817
17550.8464917
17599.0124032
19550.8802529
19551.5235619
19551.1819122
17526.7389976
17458.7840835
17591.9952282
17483.9778259
19550.1740288
19550.034357
19551.368327
17406.4810919
16950.6431293
17442.2183744
17050.4980562
19554.2119757
19554.5945681
18140.3339588
17929.710399
17931.8199696
19546.1442504
19550.2996234
19546.2246052
17836.072446
17525.0997798
17835.559871
17575.6309217
19543.7845622
19544.2462704
19543.9725928
17465.4254017
17439.6089217
17514.9456472
17456.8341135
19546.990886
19545.0192087
19547.0961254
17452.5968523
17536.9374248
17461.3028565
17529.2983605
19550.8689362
19549.1609676
19550.8187632
17561.1020419
17605.1421507
17551.9453153
17603.4121838
19551.0170854
19551.2611277
19551.038317
17595.8523228
17497.3431502
17589.4302569
17506.4492876
19552.4162636
19550.6674559
19553.4055595
17477.1820178
17111.1777898
17516.5279526
17258.3926335
19546.7274978
17514.7037099
19550.5983116
17541.713732
17600.5396681
19551.0242482
17585.7930336
17513.5748613
19553.9256252
17538.1914674
17295.8827073
9.09674030686
7.22010894031
9.29469488406
6.7203221624
692.991161747
683.011279829
3.49337125958
0.739605630471
2.7377044259
1.07905829209
745.099240731
719.414022914
744.532276762
1.10744972642
3.31969369982
0.969696998834
2.58276768966
805.407128186
765.444692489
815.001783362
4.97103672164
5.75418816773
5.34211325404
7.43368137367
946.190747268
894.740503478
962.05659105
8.73338567197
14.6724460527
11.4282834318
16.2502433748
1022.16590794
1015.04192448
1039.44754081
20.0516699351
22.7167464384
21.6031680359
25.7921209022
1082.01558447
1064.11521622
1102.45684814
16.3632619961
6.3728676544
21.5263762379
7.76362772144
1149.48141775
1159.74207999
1163.83191112
1.94434456074
1.42581867266
2.0252177735
1.57968978348
1186.55707244
1184.71970792
1201.6075079
1.69482838709
2.04120135486
1.98478020241
2.45503724919
1178.12466049
1204.57814518
1179.35539181
5.55863050013
36.8802303271
6.74880089128
41.5578727015
632.244022412
641.932902514
641.31779787
7.42876442673
5.37534916897
6.44194511877
5.82132632632
671.884655533
644.470833914
658.894711415
2.91199994528
1.8483509574
4.17119715867
2.54624314705
730.306467447
681.861978697
704.547769534
0.750249694192
0.683412993501
1.26924640265
0.655897340668
798.415462216
735.789880022
778.062480142
2.02851845336
6.88048393629
0.926157089305
3.46817801471
943.095960629
852.565872622
929.133038742
11.850977955
16.1329022419
11.0628122939
15.7560955383
1046.31668658
994.127566099
1027.33795122
21.8531297626
26.5842572998
19.4221289968
22.4907852737
1113.30656502
1064.7750945
1112.90704734
30.1153183643
10.1879978224
29.1976189196
10.2851720293
1168.77712341
1165.04932073
1165.09984913
2.08712957016
1.67707609276
2.02150854894
1.63670765025
1202.99535496
1179.57527206
1191.66089446
2.16018065484
2.78851022873
2.16938864035
2.73432472273
1171.43851232
1191.19315222
1162.53091855
8.14914012822
46.4756037623
8.23101984422
47.6450372962
656.629738209
662.975589282
659.542986987
4.9014277128
7.00947775989
3.37122909179
5.71633068892
651.248100598
654.992714029
652.974541289
5.40720794411
2.97835790177
5.03498805557
3.09998150403
690.748001973
661.578450946
688.708667187
1.2877061112
0.751810931166
1.59279325188
1.05557045131
771.974950457
727.809332382
787.483275498
0.735438215642
2.39116823406
1.03013623732
4.52969963832
914.342770755
861.529352594
905.990325219
8.86475963008
12.9716742852
8.37919723631
12.1391053544
1009.70967498
948.023915308
979.917222677
13.012999829
13.5130537209
12.1159575186
11.7023903837
1101.05299807
1026.69157521
1068.70065505
20.4034889516
7.9366075943
16.8084727745
6.4676731404
1149.4344851
1113.82201626
1115.58095555
1.64768816093
1.27839470061
1.28228406983
0.979370112699
1171.99975334
1123.04187073
1144.16812967
1.74499364467
2.16724615765
1.31748337238
1.65682434222
1171.43671696
1154.24927196
1158.35287017
6.17319416891
35.2807661531
5.06287323034
31.2573585165
655.120487698
659.675049975
4.16374481914
2.43627569822
2.89203947059
694.7407201
679.217020973
713.49644829
1.72546134507
1.64249811721
3.48684857253
4.9095049963
809.971936862
761.855731218
824.047864407
4.38665951718
7.35054929749
6.84826169372
8.57562391406
902.171967723
872.61742521
892.839459042
9.05805775173
11.6231783538
9.75744430202
11.273816256
951.070214171
905.185135733
932.774062706
10.9885189081
10.4987909752
10.1195654341
10.0758305018
1033.52366003
973.267373943
1012.64017058
16.0780550606
6.36977744529
16.8765000628
6.99841622281
1078.12789237
1040.54718194
1048.27636305
1.17038757924
0.884389721677
1.43536712938
1.08762409756
1113.64694696
1059.59516899
1088.12684477
1.09114503006
1.4172877594
1.35189767342
1.94489128739
1153.23308442
1105.96281
1134.13585921
4.2830422004
27.089574328
4.53537017043
25.2726716142
824.952646241
819.54280604
8.25045799122
9.83565154785
8.57922989646
10.2853758091
884.966470747
852.230801534
872.573769198
11.4267321498
13.9860005483
12.7649969788
14.6607086711
925.445827764
886.150111543
924.763179505
15.187943234
16.8423214118
16.8649115618
19.2240529386
1004.75457268
977.260438965
1004.31151589
19.8443617064
8.76644322929
18.1245254754
9.24262844127
1032.4170866
1027.88878875
1027.28571695
1.9683113337
1.42534611868
2.78040348085
2.00201959176
1067.28393118
1038.91283724
1052.60086755
1.82824947004
2.34937550449
2.70653363539
3.06065189005
1097.15060805
1056.14194492
1061.05651268
4.80365283126
28.8915474556
6.22729018333
31.5376001179
1012.47961408
4.42618733555
1033.97739407
2.88971317188
2.33929987683
2.45632006616
2.21380768259
1052.02423608
3.02843732313
3.48245742091
3.2151065975
4.32506180596
1040.0670765
6.60937414907
36.7397652169
8.66866945671
37.7409117328
19545.5786506
19544.8619285
17965.924948
17965.7453658
19545.4982362
17985.094557
19544.6889476
19545.9764708
19547.2965577
17982.2893178
18066.2947599
19545.7114469
19547.813633
18017.1199952
19547.1664018
19545.6784235
17977.8168892
17969.7571879
19546.1682314
17983.520232
19546.8612149
19548.794061
19550.3026256
17993.3199881
18024.6504957
19550.5773624
18000.6334616
19548.4308034
19547.3350059
19547.3319731
17982.9179555
18010.3409606
19546.2593737
19548.4749413
17993.5379799
19548.9997189
19551.278799
18032.220981
18020.1777964
19550.6671909
19549.9554107
18008.8458581
19553.3526487
19552.0269298
18054.1315409
18045.9611382
19552.1010817
18040.6828365
19553.4076779
19553.7016307
19553.5293921
18066.0392524
18055.6985595
19553.317619
18051.3179312
19553.5294841
19554.0293243
19552.8051635
18052.8938539
18079.3551314
19552.223622
19554.4962896
18051.1694301
19554.965734
19554.8788835
18047.6606539
18083.8899788
19554.7310795
19555.5281453
18052.7952411
19550.7588549
19554.1617605
18064.6771943
18048.8167984
19552.1022419
18004.197731
19553.7826259
19545.8246425
19542.8717791
17967.1968774
17670.7204114
19537.042784
17862.4080812
19550.0827013
19546.8607088
19551.8035423
18006.4580212
17876.5441271
19552.2948088
19545.037496
17917.4967633
19540.6636968
19526.5718276
17570.3870898
17708.7699019
19531.9135828
19536.4368471
17768.8753962
19517.5716557
19532.2920753
17270.0221393
17428.9737921
19527.0865061
17194.242202
19521.1289223
19511.2745256
19513.9503804
17104.447982
16962.0481225
19512.1164156
17049.2333765
19513.1650502
19513.2179712
19517.0601794
17345.1336553
17110.7990632
19522.2443436
19508.4551093
17139.4358096
19507.5070022
19506.3965414
16966.8113276
17004.3819831
19507.5593648
19504.05456
17027.6696904
19517.5649791
19515.155667
17142.7402907
17005.59255
19513.9417922
17101.8861082
19518.5948011
19522.8332408
19530.4451488
17226.7201538
17267.7147667
19528.9455571
17194.6267572
19524.5007091
19514.1310042
19509.7723163
17003.8354005
17088.5884996
19509.9157652
19513.3186189
17089.3497997
19520.6001711
19526.0109595
17247.2123055
17168.4243989
19527.8141544
19519.4467609
17175.0460935
19535.130568
19533.8905653
17371.7242246
17308.5804799
19532.5878696
17350.2008285
19535.9184708
19536.4826768
19539.1510818
17409.7162677
17420.0759278
19537.6245576
17390.4498948
19537.5000705
19534.7695426
19530.1510946
17291.4500805
17330.4526038
19531.8042174
19533.1443689
17336.1279486
19536.5956326
19537.0120862
17402.966421
17371.1286242
19537.8728069
19535.4992551
17376.4229805
19535.0486011
19539.4510922
17444.4253285
17420.5424489
19537.2717725
17423.7802398
19537.8650795
19532.2783862
19534.0515748
17434.7737858
17387.6713174
19528.6668012
17413.1514563
19536.0162689
19535.5684176
19537.1502158
17401.347312
17388.017604
19537.6460092
19535.4686141
17404.7005567
19533.4228247
19528.4254658
17331.4999603
17349.8528128
19529.7353131
19532.8924097
17377.0696096
19512.2963569
19529.6493718
17264.8858653
17364.4901231
19523.2228593
17240.5692736
19519.7861167
19492.205757
19502.8572552
16788.3994997
16839.0301226
16772.0394067
19498.3507195
19500.0593163
19512.4032327
19521.8781804
17302.0831069
17138.2409511
19523.6674996
19510.3097212
17177.1059468
19493.1217228
19502.6385949
16856.2019187
16684.3006243
19489.0701618
16719.7761512
19502.170008
19561.4248358
19565.103542
18400.9436606
18432.6507155
19561.953001
18391.8753236
19564.0670275
19558.2283736
19555.0617127
18356.1922095
18306.3673571
19558.7809349
19555.7411954
18354.5684625
19560.8454648
19561.7686903
18403.1571509
18350.116906
19559.9892864
18377.2902842
19563.0132216
19558.7133642
19556.5139462
18309.7557448
18334.3916149
19556.1881054
19558.169136
18350.9428999
19551.0826879
19551.7900114
18160.7102327
18252.1303601
19549.7814598
19553.1697529
18193.7115548
19549.7491348
19547.6836247
18102.3493487
18096.6234504
19548.8215707
19548.6843273
18147.8892458
19552.243708
19554.8267411
18261.7872296
18248.0444611
19553.9954145
19553.324378
18214.7662074
19550.9960737
19552.0502984
18145.7645905
18214.3456924
19549.8528423
19552.5078382
18185.6529806
19549.0546795
19547.0333746
18035.3647952
18072.4868237
19547.991103
19548.0645992
18074.5873666
19550.4743632
19551.3193621
18043.224847
18091.6537437
19549.5795958
19552.0924239
18081.4819889
19550.1936284
19551.9812115
18120.6549864
18163.5652461
19549.3791328
19552.3726564
18120.8637421
19551.4294895
19554.7605188
18131.7913874
18161.0039827
19552.8634523
19553.4858152
18125.021209
19555.2063652
19553.1090498
18118.7682542
18105.5929588
19555.1150255
19553.7411979
18125.2253681
19556.24983
19555.8406901
18121.9202095
18136.7184386
19556.1934781
19555.8729945
18148.5060997
19555.634538
19555.9550129
18140.100502
18180.6344504
19554.2700793
19556.9024934
18153.2301624
19556.8063496
19558.1960237
18175.314015
18191.9047922
19556.8675524
19558.1385833
18174.9472179
19547.0438114
19552.9299162
17902.9720871
18056.672159
19546.0193345
19553.2092901
17922.1098858
19537.533099
19524.4186524
17730.9709445
17548.9041663
19536.418873
19525.663819
17748.7297608
19548.7745118
19555.6559525
18096.8795811
17979.1745246
19554.4536309
19550.0870221
17948.0799314
19540.5155978
19531.6810395
17562.7644705
17784.7940612
19529.6440004
19541.9021282
17762.4348713
19504.061147
19512.7840901
17142.0110439
17357.7689509
19503.339514
19513.8673127
17176.9471513
19498.6095285
19500.8732087
17039.1501511
17029.0552807
19498.9314364
19500.00112
17078.9829478
19510.2443289
19521.8562206
17379.3739729
17230.6886336
19518.9800091
19513.4669159
17216.146271
19504.3858549
19508.2377453
17075.6549811
17152.7466688
19505.410099
19508.0833403
17125.3337733
19508.3628889
19504.9188638
17096.3478441
17048.3848241
19510.2912178
19503.2322785
17108.3769024
19514.1767913
19522.563281
17166.2202366
17233.3834035
19516.424619
19520.5500396
17174.8456515
19510.1077701
19508.8142534
17086.9494843
17153.6196055
19507.3519828
19511.1064613
17132.2868253
19514.6899352
19520.4038055
17239.3002837
17201.5898406
19520.3737721
19515.1296946
17188.4552978
19529.9702218
19527.5052991
17322.5765941
17273.203251
19531.3739091
19525.7719083
17319.4337034
19532.9421981
19535.9420272
17359.4366807
17372.7022242
19534.4705118
19535.2876507
17354.5665155
19529.6977868
19525.3475185
17276.6050702
17331.9739092
19525.3925003
19529.5219635
17320.0986515
19533.2354018
19535.9154743
17372.8755126
17364.6680221
19535.4634825
19533.0890557
17353.746761
19535.0484991
19536.0021537
17374.303843
17372.089024
19534.5948825
19535.7154288
17366.3876307
19532.6426373
19527.0123782
17328.5421874
17242.5328959
19531.8023449
19528.0298857
17318.0444433
19535.0799237
19536.5968035
17375.1020918
17379.723961
19535.7563778
19535.9403254
17370.694639
19532.4757445
19528.8639764
17248.2992183
17333.6329925
19527.7471531
19533.4549033
17323.2737461
19510.2898404
19520.4137812
17118.9484366
17206.9729193
19509.0066167
19521.3498528
17097.3894628
19489.3624363
19502.7624037
16696.2192712
16838.4117729
19487.4988481
16685.7859276
19505.0980781
19509.8755683
19522.1681717
17214.2305568
17119.201035
19520.9385384
19510.9807709
17106.7969945
19488.9600942
19506.7279862
16855.5166165
16710.3333735
19490.5877977
16707.8670236
19505.3396333
19559.8618317
19561.4949744
18322.6500934
18329.7077527
19559.8988941
18322.0799722
19561.0276867
19558.6230646
19556.8060034
18314.6890781
18304.3678558
19558.2481098
19557.4432522
18312.1221844
19559.7177516
19560.589339
18327.9843993
18318.9736083
19560.05717
18321.4619418
19560.7907163
19558.6660718
19558.508809
18307.5338356
18316.7720379
19557.8528155
19559.215061
18311.2098619
19555.4155141
19555.4030814
18259.3596191
18297.1779536
19554.316753
19556.3421673
18288.9132204
19554.856701
19553.5575529
18242.3621421
18266.901082
19553.7036968
19554.6186359
18278.9701852
19556.3719629
19557.8269225
18304.9822113
18294.4493894
19557.0765852
19557.2685468
18300.5844069
19555.8774002
19556.9567911
18278.0776324
18293.4592342
19555.804889
19556.9431762
18291.6447854
19555.5494438
19553.7036337
18208.6578071
18256.6350555
19554.3909181
19555.1477051
18248.6251849
19556.1850368
19555.9736849
18195.1436251
18220.2453134
19555.1825562
19556.9840449
18234.263168
19556.6223443
19557.1862601
18267.8063443
18279.0486324
19556.2286291
19557.684767
18262.7002673
19557.0960884
19558.555591
18238.2353067
18262.3723894
19557.7446734
19558.1226479
18252.6289808
19557.9796023
19556.5569433
18199.8983638
18218.2015777
19557.5159716
19557.7177315
18219.847376
19557.8095883
19558.2072219
18203.6067774
18212.7560477
19558.254174
19557.8303291
18221.5102589
19558.1584747
19558.3876856
18230.0736584
18242.4485335
19558.3620632
19558.7045046
18227.7119973
19558.4723071
19556.0868876
18193.6692868
18211.5549863
19557.3546258
19558.1957852
18220.7854998
19548.7809446
19555.5179798