/*--------------------------------*- C++ -*----------------------------------*\
| =========                 |                                                 |
| \\      /  F ield         | OpenFOAM: The Open Source CFD Toolbox           |
|  \\    /   O peration     | Version:  v1906                                 |
|   \\  /    A nd           | Web:      www.OpenFOAM.com                      |
|    \\/     M anipulation  |                                                 |
\*---------------------------------------------------------------------------*/
FoamFile
{
    version     2.0;
    format      ascii;
    class       surfaceScalarField;
    location    "5";
    object      alphaPhi0.water;
}
// * * * * * * * * * * * * * * * * * * * * * * * * * * * * * * * * * * * * * //

dimensions      [0 3 -1 0 0 0 0];
oriented        oriented;


internalField   nonuniform List<scalar> 
92311
(
0.202341520123
-0.000127091562991
4.05390338562e-05
-0.202191840102
-6.29175190255e-05
-0.000206233532659
0.202353466553
0.000760424954266
-0.000565954160371
0.202284370978
-0.000214476482501
3.97767964524e-05
-0.202159148547
-7.7427424082e-05
-0.000425985184049
0.202334207551
0.000768384158889
-0.000598332067041
0.202060065507
-6.3222444518e-05
-6.89553094283e-05
7.00958440326e-05
-0.202058802241
-0.000106356937518
-1.99057792971e-05
-2.7383323036e-05
-0.00017107941433
-0.000255188672293
-0.000216585348905
0.202235125917
0.000823699466565
-0.000648753096352
-0.000133135994964
0.0505396467199
-1.72226970398e-05
-5.49064963469e-06
-1.67223573533e-05
-6.63445428921e-06
-2.82167508274e-05
-0.0505689297509
4.03565784459e-05
-0.0504944660666
0.0504400107162
-4.22118038309e-05
-3.07077757548e-05
-3.12897936476e-05
-4.03984900012e-05
0.000145557620597
-0.00011758110272
1.13532705018e-07
0.00065633435794
9.03416714551e-08
-4.76382462435e-06
-8.439968575e-06
2.311115148e-06
-0.000689569678128
1.63008837848e-06
-1.81090983804e-05
0.000271231610597
0.00014087546105
5.27365898605e-06
-0.00046222952851
7.27618477117e-06
8.39242215216e-06
4.69113848512e-06
5.86599545998e-06
-0.000142126794213
-5.06247927547e-08
-5.19534188202e-07
-6.27452625167e-07
-4.38917172417e-07
9.50106854964e-09
7.83382159616e-08
2.41024038963e-08
-2.03435886308e-07
-1.13535168789e-05
-9.79645699342e-06
-9.52146817636e-06
-1.23572355517e-05
6.32532414912e-05
-4.40011447785e-05
1.33170658555e-05
0.0116425671155
2.60103855611e-05
-2.283680877e-05
-0.011664397972
0.0115900394989
-8.68366765778e-07
6.02044589121e-06
-0.0116130245562
1.11358910811e-05
4.25994353234e-06
-0.000194451259026
-9.1697971849e-05
0.0504844884499
-8.80145807765e-05
-6.81158179232e-05
-6.60400708555e-05
0.000208615856948
-9.07819134372e-05
0.0504100416927
-8.46382162018e-05
-6.77959566533e-05
-6.09552948148e-05
-0.050357188881
-0.000159700781107
-1.96123621673e-06
1.9782722891e-05
0.0115548664204
3.18148579627e-06
1.41014592994e-05
-6.38984736803e-05
0.0125829547151
6.41278360568e-05
-0.000101932408012
-0.0125725573115
0.012574455596
-5.0883281909e-05
-0.000116180722127
-0.0125617026901
-0.000119006918348
0.202707368262
-0.000799184732692
0.000650840706467
-0.202439912203
0.202345503481
-0.000267640786031
0.00123322713314
-0.000957489683574
-0.000203580661873
0.20225026796
0.00145333156436
-0.00115447772326
-0.000180151383233
0.202716687765
-0.000812966132779
0.000671346083706
-0.202513987816
0.202432793292
-0.000663009897632
0.00125450205119
-0.000957658512418
-0.000486072062621
0.20237115852
0.00150527889001
-0.00116105014492
-0.000106909141809
-6.56656972231e-05
-4.361786793e-05
-0.000693646490139
0.202620665696
0.000665156932444
-0.202477552413
-7.86544843111e-05
-0.000322439463622
-0.000392062855784
-0.000295161125829
-0.000368535310732
0.202636639465
0.00142466393589
-0.00111098382324
0.0507140765688
-4.79233251362e-05
-4.83037868793e-05
-4.64069163108e-05
-4.88272920151e-05
-0.00020536918184
-0.0506417292494
0.000217639421488
0.0506110656433
-0.000257116443531
-0.000103302908087
-0.000101130986797
-0.000127121725207
-0.000123488376025
0.00026320482261
0.00022416980483
5.51042961e-06
4.83245370534e-05
9.65764856121e-06
1.05137674478e-05
1.23941827161e-05
1.37507060951e-05
-0.000216761636133
-1.43502253063e-07
-1.09811421564e-07
-1.01867053186e-07
1.68555951876e-09
6.60900417843e-09
-1.31090178534e-08
8.07205973725e-09
-8.59884570878e-08
-1.44114170373e-07
-1.52589695802e-07
2.07605219659e-09
6.49909487036e-09
1.01982902556e-07
-7.97410662894e-08
1.86812174187e-07
0.000121693760744
-3.35411523165e-05
-2.31375287189e-05
-2.88461567549e-05
-2.64745274781e-05
0.0507512585513
-0.000112466083658
-2.76782451707e-05
-1.76548580596e-05
-2.65529068407e-05
-1.97381666746e-05
0.0506518988185
0.000131491177281
-0.0506136037425
-2.43398481021e-06
6.68643578779e-05
0.011680870635
2.45170750232e-05
-3.71040718642e-05
-0.0116973988236
-2.16462587641e-06
3.39829187076e-05
-0.0116478880233
-1.07208072078e-05
1.20858940706e-05
0.0116390426084
-4.18809258624e-05
0.0126640597496
-3.93597210656e-05
4.56490284348e-05
-0.0126556385245
-0.000318649851308
-0.000128065086147
-0.000137428098843
-0.000125473245461
-0.000141101209685
0.0507493062678
0.00032055345279
0.0505488386216
-0.00010337284544
-0.000131531780872
-0.00010001097356
-0.000128886458266
-0.000227133928063
-0.00013080880435
-0.00014907644305
-0.00012789448571
-0.00014093351045
0.0507048598278
-0.000294382968964
-7.59041054885e-05
7.33756554312e-05
-0.000117147094324
0.0125998710842
-1.39776736926e-05
0.000155718760908
-0.0112076239403
-1.85379843356e-05
0.0111229344969
1.67198593545e-05
-6.73338641204e-05
-0.00012975837207
0.0125929230791
-0.0126104443015
-0.000173283304043
0.0126445255361
8.59447177295e-05
-7.6720500512e-05
0.000585199300378
3.96733765693e-07
1.30841785874e-07
-4.12292206364e-06
-1.23007754895e-05
4.65582602129e-06
2.41639277612e-06
5.38200887707e-06
8.96636844216e-06
7.44083229447e-06
3.77689243562e-06
5.85320900511e-06
0.00029617095872
0.000163742969174
-0.000510385628915
-8.70051345053e-07
-9.52575632356e-08
-3.87833296364e-07
1.10054037527e-06
-6.99894611126e-07
-4.66066304841e-07
1.16457833104e-07
4.02828061661e-06
2.9498157549e-06
1.70458254618e-06
3.18320356465e-06
-6.95396414328e-05
5.68407384698e-05
3.10371352293e-07
-1.28471114878e-06
4.4807988784e-07
1.68584056343e-05
0.0126421656655
-1.32009499895e-05
-0.012649333439
-0.012631026599
1.34468821515e-06
-2.47078600855e-06
0.012622948755
3.74909717467e-06
2.43556101333e-05
2.33308194752e-06
0.011630502043
-1.78783600103e-05
1.19715571769e-05
0.0116414438664
-0.0116642709299
2.4787753827e-05
-0.012635126623
1.66027201604e-05
0.0116268175569
2.42594426719e-05
0.012634607911
1.00332375452e-06
0.0126092564818
5.84960057128e-07
8.75917960744e-06
-7.04833554041e-06
-2.27912748101e-05
-0.0126208662747
0.0126113801256
2.84923478643e-05
1.81549655075e-05
3.6784672162e-06
-5.8993481599e-06
1.81675256452e-06
-0.0116100454954
0.011591417172
2.22594488053e-05
0.0125995950458
-2.10058016447e-05
2.44629677154e-05
1.38595272878e-05
-0.0125825715196
-4.19187469828e-05
4.52295378999e-05
0.0125790298626
-4.19269653746e-05
-3.29722638227e-05
0.012595839627
3.7501727102e-05
-4.79704434473e-06
3.64050095146e-05
0.0115083590791
2.17520718717e-05
1.87814322933e-05
0.011559964454
1.7423881861e-05
-2.85590457251e-05
0.011514645051
1.15568679329e-05
0.0125906883966
4.6316816978e-05
-9.24193633467e-05
-0.0125832900966
0.0125911223011
6.09576727193e-05
-1.60394872907e-05
-0.0114596746741
0.0113963474902
2.40504877195e-05
-0.0114686036864
-3.97720306451e-06
0.0114049517885
-6.43560411839e-05
5.58374242676e-05
-5.29105667695e-05
-1.46688104479e-05
5.73078131636e-05
2.46630759475e-05
-3.05829705255e-07
5.45317420262e-05
-0.00010536044896
-0.0125459266914
0.0125591274868
-4.28733777939e-05
-9.6523398103e-07
-0.0114781757622
0.0114117278104
-0.011486747769
0.0114236169668
1.32115567766e-06
-3.68130663437e-05
-7.79622117269e-05
-0.012567352965
5.87928435495e-05
-2.21124173144e-06
-0.0115291087582
5.68677412395e-07
-0.0125537434623
-3.08292308583e-05
-0.0115258733279
2.2273697142e-06
-6.20302875223e-05
2.94090650647e-06
1.545780438e-06
2.58828474945e-06
2.81951206209e-06
0.000681328651856
-0.000730159394926
1.18437610772e-05
-2.39624577862e-07
6.12490316152e-07
1.01373274053e-07
-4.27418558222e-07
0.000677074949695
1.61228502483e-06
2.18074358852e-06
2.59093554773e-06
2.88683475106e-06
-0.000124622103201
8.20427462387e-05
-0.000726907332834
1.78965889344e-06
2.53413557369e-06
2.79566929196e-06
2.59352040765e-06
0.000615192471485
-9.24877876454e-05
3.37001973339e-07
-3.95114146207e-07
-4.04442040713e-07
2.27451180131e-07
-2.18077844459e-07
2.28046878657e-07
5.62344461364e-06
6.44928888518e-05
1.16707554522e-05
1.22876349907e-05
1.65216368541e-05
1.49423540369e-05
0.000238028368266
-1.49721881517e-06
-4.6393243488e-07
3.0808311864e-06
-1.06963328634e-06
1.4444749433e-07
4.60785544561e-06
-0.000260743367587
1.68655585566e-05
1.9949348853e-05
1.69221062395e-05
1.53922258277e-05
-0.000141090955801
0.000282082048082
-2.14864212315e-06
-7.61345702714e-07
4.37336985733e-06
4.23279309003e-06
1.27752607746e-05
1.53972646411e-05
1.38738014677e-05
-0.000140067949378
-0.000245108969918
-1.42862229712e-06
-1.30102367732e-07
-3.42002369939e-05
-0.0126664874605
-6.53784789996e-05
0.0126768692393
4.20424755293e-05
0.0126750266579
4.4202565732e-05
-3.71863630708e-05
-0.0126627325276
6.35588223403e-05
9.75420086693e-06
0.0116604399848
-1.85542608251e-05
6.93747490817e-05
0.0116915633338
-0.0117131743309
1.10439976138e-05
0.0126853603723
-2.63100905413e-05
-0.0126541035019
5.29173548236e-05
0.0116665399133
5.60356698453e-06
-2.48096443104e-05
0.012686670142
-4.89289268813e-05
3.11275541082e-05
-0.0126966575574
1.51404736725e-05
-9.39402994611e-06
0.0127024258689
4.64706260871e-05
3.92359977875e-07
-1.94514175118e-06
3.47152246933e-05
-0.0116443308616
-1.58040745728e-06
0.0116286235322
-1.75079530646e-05
2.04705136204e-05
0.0126900694376
3.44005315261e-06
0.0116589288887
-1.5014474536e-05
2.99634382529e-05
-0.0116837079995
2.01047544073e-05
-1.61625675538e-05
0.0116420793665
2.91524533219e-05
-2.66431771791e-05
0.0126652555691
2.82841592863e-05
0.0126763001314
-4.3120193123e-05
-0.0126671723806
2.69013088792e-05
-0.011647228351
0.0116271970774
0.0126778941804
-0.0116762925596
-0.000109774567887
0.0126068090829
6.68422560589e-05
-2.19576691848e-05
0.011340303311
2.45669047227e-05
0.0113467139205
-1.65549307838e-05
7.79475220292e-05
-0.000149018746578
0.0126262062079
-8.1704941218e-05
0.000141721576042
-2.11818519013e-05
0.0112739865453
2.01290727506e-05
0.0126323891364
7.14222319632e-05
0.0112688255971
-1.58580829812e-05
8.30381082715e-05
0.0126534927498
-0.000148270091591
-8.94514908318e-05
-0.012658943942
-8.78624477011e-05
0.0126853548355
8.06025068098e-05
0.000142985687476
-2.15161229233e-05
2.10861372396e-05
0.000160383088818
-0.011196209772
-1.62695282145e-05
0.0111120536051
7.49974859521e-05
-9.51943918336e-05
0.0126807488737
-1.93159733629e-05
-0.012579476577
-0.000171044537953
7.58321070806e-05
-6.64731130512e-05
-0.000130004119875
-5.70263530997e-05
-1.63569104705e-05
0.0113482598052
0.0113617314949
-1.25866673427e-05
1.50912756377e-05
0.0112760556863
-1.09624537664e-05
-0.000161359866715
0.0126204553614
0.0112651262212
0.011189247038
1.7326572444e-05
-1.26131526205e-05
0.000189185840213
1.43539674172e-05
0.0110865556147
-7.81301983291e-06
9.03407306861e-05
0.0126760591225
-8.08977954568e-05
0.012650372216
-0.000160248657041
0.000172830802169
-0.0111878345953
0.0110975159094
0.0126783251268
-0.000333712591527
-0.000298884918335
-0.000188204531823
0.00159369587006
0.202884180447
-0.000256472287253
-0.00124998624574
-0.000352298064505
-0.000112262554497
-0.000115618609039
-0.000109634367903
-0.000119457513003
0.000349614133234
0.0508753286618
1.40576074252e-05
0.000262684600632
1.90512492734e-06
1.38028587056e-05
1.50051576599e-05
1.48016970524e-05
-0.000246627067605
-0.000243387415318
1.59763285059e-07
2.12047716315e-08
3.00744321871e-08
5.27273375494e-08
3.54917138801e-08
1.38319908526e-07
7.81860671596e-08
2.98868352723e-06
-8.16587049709e-06
-1.25330415757e-05
7.36004308007e-06
4.20111630194e-05
-2.02735132596e-05
0.0506123335988
-4.31543246015e-07
3.56447688703e-06
-9.12544340011e-06
0.0116243582319
0.0508368947372
-0.000106739689867
-0.000123948051688
-0.000116956499768
-0.000115783374931
-0.00031975362087
0.0508344239
-6.98448779917e-05
-4.30869765974e-05
-3.95788448492e-05
-7.61344697305e-05
0.000386684026217
-0.000343932716199
0.000139484889219
0.0110441880434
-1.17322278958e-05
1.54148386637e-05
-1.90967227708e-05
0.000171562087773
4.53216243402e-06
0.0109979437906
1.8846566972e-06
0.0108569606251
-4.3796423075e-06
2.81072249458e-05
-2.8262657602e-05
-0.0108737375137
3.33774945383e-05
0.0507961095747
2.5444867137e-05
-1.53310564307e-05
-1.41164388539e-05
2.42612647889e-05
-1.99093150513e-05
0.000387930948971
-0.000350202361957
3.90895617094e-05
4.85958031333e-05
4.79496553601e-05
3.65399764132e-05
-7.22970751646e-05
0.000412665632815
0.0506598802701
-0.000376382927421
1.60663864352e-05
9.63815474363e-06
-3.62031596706e-05
0.0108289246959
4.09427623954e-05
6.25067817241e-05
-6.7604473318e-05
-5.18572558858e-05
-0.0107998085689
0.0107895085688
6.22837512611e-05
1.97748327912e-06
-3.35348978258e-07
7.32804935018e-07
-4.13735341891e-05
0.000633575505675
2.35914473919e-06
-0.000274891985477
2.19220332397e-06
1.65497357329e-05
1.81226460606e-05
1.57276541019e-05
0.000299811142357
-2.77993074221e-07
-0.000346195669333
5.4452741051e-06
1.05282195935e-05
1.03704734448e-05
-0.000282339838523
0.000347363131093
1.34493449511e-06
1.5628801978e-06
-1.04592888313e-06
-6.68597287903e-07
4.82980534892e-06
-8.77801080768e-07
-2.00817446786e-07
4.31505720587e-06
-0.000381381049304
-1.09270977459e-05
-4.32504950299e-05
-4.14144383053e-05
-0.000340766674286
-1.33515885525e-06
0.000431536668989
-5.52361557756e-05
-5.52889312639e-05
-5.77774483631e-05
-0.000384658972547
-2.87958518557e-06
-0.000280206995688
0.000475974079833
-0.012672727766
1.02203767154e-05
-1.95046281024e-06
4.64079280154e-06
0.0126628995961
-1.20594122542e-05
0.0126598779385
1.14964900196e-05
0.0116187059809
1.1426627323e-05
-2.96955681046e-07
-1.79273732089e-05
0.0116185276282
-7.52971308561e-06
1.91748470876e-05
0.0116170587727
0.0126485580361
8.92095767627e-05
-0.0127133716495
-0.000124691531396
-9.53087037765e-05
0.0127324890455
0.0127163560937
-8.98478555253e-05
8.33307415809e-05
0.000123329977192
-9.43662611889e-06
1.46969515194e-05
0.0109784227238
0.000145567794107
0.011032687088
-8.51279879713e-06
8.5233175311e-05
0.0127345803119
-9.56707491674e-05
-2.74112286121e-06
0.0109624424888
-0.0127126894755
-0.000132030595156
-8.85843095984e-05
0.0127317890545
8.99653159333e-05
0.0127145495948
-8.01019312941e-05
0.000156345916264
0.0110121899821
-3.08307456113e-06
0.000143294115286
0.0109266745734
1.05645865206e-05
0.0109413752106
0.012734429992
-8.02404909466e-05
0.0127416722476
-8.86308597392e-05
-8.36381813846e-05
9.31238694109e-05
8.44713049326e-05
-0.0127438177573
0.0127218835595
-7.75345125876e-05
3.17567432642e-05
-0.0108923127661
0.0108779153128
-1.92254513674e-05
-1.72507924538e-05
9.1457296893e-05
2.31757132118e-05
0.012724239549
9.43889650643e-05
-1.00315435479e-05
-7.70667377963e-05
-0.0127121228795
4.29607681683e-05
-9.06892014985e-05
0.0126871669671
9.7913085248e-05
8.59825237699e-05
0.0127073766368
-7.74655160302e-05
1.30575299603e-05
0.0108445754847
-2.83266380787e-05
-4.46621573532e-05
-3.95624459127e-05
0.0108164942938
4.97764288452e-05
9.66464716914e-05
0.0108163364226
-3.46909289712e-05
0.0126842924382
-8.30022245192e-05
0.0126609134679
5.7607542269e-05
-9.35994814755e-05
0.000101203387431
9.82422750421e-05
-0.0126585813669
0.0126338653542
-9.23413946723e-05
-6.40146410872e-05
-0.0107899154392
-3.72858940992e-05
0.010777003216
-4.62981668236e-05
-5.58887195598e-05
5.53984591805e-05
0.000106620176516
0.0126363434904
-3.49797270038e-05
-8.71533064783e-05
-0.000486574372459
-0.0491517227719
0.0490960183517
0.000573649481245
-3.40877545006e-05
8.09079596287e-06
-1.5398043882e-05
-1.78179487738e-05
2.81800268821e-05
-0.00063626066463
0.0497263882869
-0.00010417737635
-8.03906579771e-05
-9.64224717465e-05
-8.89221186542e-05
0.000228385594404
-0.0495813031729
0.000632697747439
-0.00107163536938
-0.0498903548911
0.0501213956425
0.000890273078019
-2.22430714216e-05
-4.8260768704e-05
-2.95803390736e-05
-5.62670702291e-05
0.000106713275733
-0.000737057163961
-3.23459059525e-05
-4.58686771935e-05
-3.16275906511e-05
-4.25232773522e-05
0.000136746204794
0.0502045773816
0.000622645852257
-0.0500745378128
1.47491981522e-06
-0.000146798580851
-0.000906888599258
0.000863488441463
0.000210978999639
5.79993334802e-07
3.81972007416e-06
3.80083019166e-06
6.93681119249e-06
2.47122882583e-06
-0.000831776878101
0.0008110532039
0.000111630292145
-1.22092001801e-07
3.16898991076e-06
6.41142451868e-06
3.67017428318e-06
-8.12701620373e-05
9.64802212853e-06
-0.000197082373651
0.000676969079102
2.07876998992e-06
1.15701330495e-05
1.21127062937e-05
1.46643805313e-05
-0.000670581384075
0.000134088177657
7.49884746079e-07
-0.000122108489817
-0.000698319657731
0.00072004382633
0.000131663717163
-9.02832844054e-07
1.22635959707e-06
3.05946526272e-06
-6.90897961043e-07
1.72409096955e-06
-0.000126321814534
1.07624187123e-06
4.18097940711e-06
3.25747155347e-06
0.000726856064546
7.75728285802e-05
1.1849259382e-07
-0.000690097893652
4.07286178068e-07
-4.13019816991e-08
1.34701481553e-07
5.90890271345e-08
1.34904493371e-07
1.3383018699e-08
3.38488873708e-09
3.13134733264e-28
-4.63033946753e-07
-5.70150645613e-07
-1.00347882831e-06
-7.57571689412e-07
-9.83840503111e-07
3.84740363339e-09
-1.18561284849e-07
3.55264087619e-07
-2.30761925284e-08
3.88359635498e-07
2.64430232912e-08
1.65873421915e-08
2.13285217709e-08
-1.5954425918e-27
-2.16885351509e-07
-4.329112286e-07
-4.71431109219e-07
-4.31124768715e-07
-3.77821492828e-07
2.03202296228e-07
6.35584365243e-07
2.99706943761e-08
2.39155463196e-08
2.59575963853e-08
-8.76166632899e-08
7.11235769535e-09
9.14644863174e-09
-4.17242079449e-07
-3.01755187825e-07
-4.02013490951e-07
-3.6616922088e-07
9.67511518669e-07
-3.21552221312e-07
0.0001809356497
4.83862880469e-05
4.57173869268e-05
4.96222751551e-05
4.1159423821e-05
0.0488160832301
-1.07000566913e-05
-7.96192971603e-05
-0.0490916043363
0.0488948877515
0.000278842683237
5.09322305506e-05
4.38399267095e-05
4.87390846845e-05
4.51616540246e-05
-3.08043134219e-05
-0.0491505856144
2.90586541056e-05
-6.21605183571e-05
-0.0117520721785
-1.10225136759e-06
0.0117493685948
3.36816010361e-05
0.011737239635
8.61624228136e-05
3.51728247931e-05
-5.31544055063e-05
-6.40089640431e-05
-0.0117475027061
5.06588410108e-05
4.98617340563e-05
5.59932690534e-05
3.44455393223e-05
-0.000302879209264
0.0122150558459
0.0121798663238
0.0120808169568
0.0121509007556
-0.000106294613802
8.88718385454e-05
9.33995497412e-06
-4.00014229878e-05
-6.68074421856e-05
0.0117409317953
0.000339910164787
1.33687534316e-05
2.31755295598e-05
2.69203750786e-05
-2.75920720655e-06
5.96540854613e-06
-0.049279493112
0.0493546772172
-1.3896819714e-05
-5.23372758367e-05
-3.42248568097e-05
-3.00309089697e-05
6.19054459946e-05
-0.0493948690218
0.000448683754948
0.0117363975874
2.26622729659e-05
-2.73741210299e-05
-0.0117491523743
9.64992280238e-05
0.0116887443478
-5.24076642449e-06
8.33409669266e-05
-9.41323657591e-05
-0.0117358319571
8.45391615159e-05
0.000888818796049
-3.72578120249e-05
-1.24835853295e-05
-2.25208045239e-05
-2.52219156283e-05
0.0491201083627
-0.000196365661852
-0.000161000866027
-0.00019932775298
-0.00016589283627
-3.46705572264e-05
-2.01566448385e-05
-2.29450810979e-05
-1.47817420953e-05
0.0494049923385
-6.02418102998e-05
-6.07607944982e-05
-4.40520879493e-05
-7.58695745256e-05
0.000128174592376
0.0496308007012
0.000841614920611
-5.92728072128e-05
-5.32458116994e-05
-4.62353054656e-05
-7.2698944617e-05
5.33252405331e-05
-1.22998083041e-05
0.0117356621163
0.0001042016094
0.0116406514443
-6.141162326e-06
4.44439783835e-05
-0.011668520826
0.00014178628476
-0.000131295533168
9.45870472684e-05
-8.47333936225e-06
0.000100520361857
-0.000102874852463
0.0116394574517
0.0115225140998
0.000134727289568
-8.18510400631e-06
7.03855567943e-05
-0.000140547609746
-0.0115409382679
0.0498791723966
-1.83812975622e-05
-4.22206070902e-05
-3.60455071035e-05
-2.09967266587e-05
-0.00115847483872
-4.33152088371e-05
0.00126487405508
6.12512095815e-06
3.94028458641e-06
-2.56679093044e-06
5.0521033897e-06
0.0504235709098
-0.000207719129147
-0.00161362581249
3.1017855389e-05
0.0116070918154
0.000146189968163
-0.000145642996776
-4.7098892507e-06
2.16243170189e-05
-0.0116399852727
0.000192328724434
0.0116574717534
-0.000198717341777
0.000148010152114
-2.34923851673e-06
4.11299486082e-05
-0.000159855969679
0.0114972361255
0.000167070179097
-1.59192783667e-06
1.20431455872e-05
-0.000179066010751
-0.0115456886795
0.0115643530475
0.000771265944315
-8.3273732115e-05
-5.80287251509e-05
-7.99892222221e-05
-6.22011615297e-05
0.000189912254901
0.0500269855769
-8.05821690057e-05
-5.7376151661e-05
-6.00159837058e-05
-7.67975094051e-05
0.000207395714408
-0.049880231855
0.000691945433492
0.000113925920773
0.0116040179818
8.8823622252e-05
-0.0116577434684
0.011491716665
-6.72895671214e-06
5.65300111797e-05
-0.0115058250824
0.000128589424517
0.0114817202301
-5.11819058723e-06
4.50005961481e-05
-0.000115338347256
-0.011488492886
0.000108608864576
0.000982594125151
-7.67244080354e-07
3.34528592902e-07
-1.0343772714e-05
5.44646875053e-06
0.0503864391293
2.25910172886e-05
0.0502031937478
-1.34220952478e-05
-4.25258944704e-05
-4.87222242604e-05
-1.83850128111e-05
0.000100056648282
8.7998868179e-06
5.46769546612e-06
-7.68155260547e-06
1.13705989153e-05
0.0503602962
0.000757539856104
5.00156619907e-05
3.08271296749e-05
0.0114754082392
0.000133899732653
4.31170270759e-07
-8.14113904749e-06
-0.0115283439225
0.000157207432907
0.0115462925123
0.000105761790783
5.29496919557e-06
2.13415408235e-05
-0.000123984340986
0.0114676124103
0.000123241532468
7.86898472205e-06
-1.81918563259e-05
-0.000131291264096
-0.0114986007143
0.0115202126561
2.8269528907e-05
0.0115080303296
9.93444926108e-05
-0.0115266895581
6.9706523346e-06
-0.0115216622064
0.0115432196936
-1.13571140239e-06
0.000115641245531
7.58223667423e-06
-3.08459267197e-05
-3.74404317029e-05
-4.06198091927e-05
0.000963387336783
0.000118767735875
-0.000911839854519
-6.32354031631e-08
0.00098053233206
0.000146960531276
-3.48127546796e-05
-3.7849464936e-05
-3.76247371062e-05
-0.000919834773673
-1.34000070893e-07
-2.37735044604e-07
-1.89859821604e-05
1.68864244308e-06
8.01346403774e-08
-2.94750905497e-05
0.000950916750401
2.96545993436e-07
-4.42465417906e-09
1.34033888084e-07
-4.83846681418e-09
-4.26117920833e-08
-2.44165973888e-08
2.02850406288e-06
4.28074889283e-08
-4.52118147794e-08
1.17061064837e-06
-1.23634772948e-07
-1.24253787136e-07
4.2051729952e-06
-2.1932416921e-07
-1.09063484005e-07
4.90351690232e-06
-8.69466299447e-08
8.48010430541e-08
-1.84486878404e-07
-7.27144734167e-08
3.12941762334e-06
8.21254404904e-08
-3.9626284501e-07
5.96324616589e-06
-3.29801828751e-07
3.46631926587e-07
-2.92276576336e-07
3.33414151389e-06
-9.63596887532e-08
0.000241216795634
-3.04922881085e-05
1.8026792574e-07
-1.75661347038e-05
-2.31718165803e-07
-0.000875670879588
0.000764985591269
2.7948134697e-06
2.16733295058e-06
1.02047792553e-06
-0.00076248812544
1.2675124148e-06
0.000231583411001
0.00015716171232
7.08456473362e-07
6.59168623825e-06
7.33221450815e-06
7.49895272222e-06
-0.000116076561595
0.000748198009534
1.8515190861e-06
5.87677227044e-06
1.09824164817e-05
8.03982212311e-06
7.51825331638e-07
0.000746950105884
0.00015145865077
7.34626631549e-06
1.04618332304e-05
7.82051384719e-06
2.87422047e-06
-8.41392861818e-08
-4.79232384745e-07
1.86852563733e-07
5.53049554311e-06
3.89906575645e-06
1.397700382e-07
-1.64184213274e-06
6.00707761951e-06
5.21111597174e-07
5.09816435718e-05
7.6502932676e-09
4.08578259035e-06
3.9262431736e-06
1.31436369512e-06
0.000800391606513
-4.99828785078e-05
0.000747365727256
-3.45800835978e-07
6.18681912352e-06
3.1420771418e-06
3.38022786199e-06
-8.80677661019e-07
5.95431244776e-05
2.60581984767e-06
3.11959019317e-06
4.16494640693e-07
0.000750595633491
5.8789800087e-06
3.80580224439e-07
5.9485959233e-07
3.53394838688e-06
6.35977286354e-06
8.08918666978e-07
1.33309893961e-06
4.27458521139e-06
0.000121092561478
4.77190202791e-07
9.66898768387e-06
6.32594001978e-06
9.17129320137e-06
5.57380351865e-07
0.00068541857074
5.28427411479e-06
8.03973154768e-06
8.29041915564e-06
-0.000653913440324
7.31898189448e-05
4.19010814835e-06
-2.24156529774e-06
4.41626872059e-08
2.54347727563e-07
6.22136581857e-06
6.22766715423e-06
-4.17518184183e-06
-3.3357956147e-07
9.2699885253e-05
-2.24662304033e-06
1.01180542739e-06
-1.16379966953e-05
-2.82145024671e-05
0.000743554753166
0.00072201620115
-7.70763983371e-07
2.24014450657e-06
-4.71695403489e-06
-9.84533304341e-06
-1.99184594098e-06
-2.64969242157e-05
-3.90793517417e-06
-4.06068538025e-05
0.000762191198028
0.000114842895257
6.90575385063e-06
5.78429134438e-07
1.09854557732e-06
5.67490819705e-06
7.32472986861e-06
-2.61924076667e-07
7.62013421977e-06
-3.59045277412e-07
0.0122600566379
7.60366349278e-05
-3.45269705421e-05
3.71067205402e-05
-0.0122903013496
4.05834217774e-05
-0.012257813849
0.0122274056673
-2.66096006683e-05
-1.57472141546e-06
-6.4327593144e-05
3.43355896428e-05
-0.0117546849305
-6.91357551225e-05
-0.011750143242
3.12122174066e-05
0.0117449254816
4.91662607938e-05
0.0122319525605
3.05299649886e-05
-0.0117520683672
-2.76283577448e-05
-0.0122878492722
0.0122666281919
4.12905058592e-05
7.55949176677e-05
-0.012295552331
-5.66207239715e-05
-0.0122798086091
0.0122623911502
6.46253235963e-05
-6.40736739766e-05
-0.0117486349856
0.011740228501
-6.50890150746e-05
-6.37529975214e-05
8.63624385771e-05
-0.0117497349282
0.0122437291697
4.62456111571e-05
-0.0123047645582
-0.0117497024332
-0.0122303541915
9.51220765365e-05
3.56363826182e-05
-7.32706158007e-05
0.0122234290033
-6.92315234264e-05
0.012253912283
8.74476831673e-05
-5.42982889828e-05
0.011737789964
-3.31463676187e-05
-1.57948358751e-05
-6.98957053754e-05
9.74043441967e-05
0.0117338688472
-5.42617741352e-05
0.000115201039448
0.0122524048191
-3.60954536438e-05
0.011737832234
-4.79277033255e-05
0.0123193109987
1.77068427502e-05
5.63454232471e-05
-0.0123322164786
-0.0122982671313
6.90080902686e-05
0.0122895263736
-4.29634492725e-05
9.58414986885e-05
-0.0117537121819
4.58693140429e-07
-0.0117451948424
0.000100039116429
0.0117372348056
-0.0123161087866
7.28993698232e-05
0.0123128742788
9.47233603196e-05
-0.0117517574073
0.0123364860233
6.42575023678e-05
-9.82608417259e-06
-0.012348309608
-8.36787634626e-05
-0.012358374421
0.0123692741839
0.000103813807216
4.87576024198e-05
-0.0117472777322
0.0117180632583
4.54736119362e-05
-9.26291002193e-05
-0.0117602826658
7.83454477258e-05
0.0123401719345
-0.0123637191451
8.50585770954e-05
-0.0117537899897
-0.000121354676348
-0.0123135860436
-6.62837180931e-05
0.0123315902334
0.000135212060823
0.0122823915599
9.02374258343e-05
2.79587071396e-05
0.000112302546855
0.0117083204731
2.8681165106e-05
0.0117170123809
0.000108402965626
0.012288704311
0.000100013152281
0.0116710111701
0.000120145491188
-0.000162945069234
0.0123584536788
-7.8511384831e-05
0.000177375675772
-0.0123096084444
0.00020255698171
0.0123274147525
-0.00018833583793
5.9812773293e-05
0.000126542486882
-0.000112494836742
6.1680554244e-05
-0.01161578026
0.000144546075974
0.0115950338254
-0.000146591037495
0.000220969499455
0.0123771576309
0.000130458258081
-0.0123521974067
0.000147390056004
-9.85712762905e-05
0.0123782753818
-0.000112681730769
0.0123898414586
0.000132009049554
6.8833662423e-05
0.0116834053258
0.000119682675181
-0.000113080520108
0.0115829994836
0.000107048989219
0.012418625614
0.00016246845391
0.011631595371
0.0124052126085
0.000185682357578
-9.4502136268e-05
-0.000228265567945
-0.012450347445
0.0124653972775
0.000230667811144
7.2171401771e-05
-0.0115735480676
0.0115577137343
0.000115993802683
-0.000126335011829
0.000121336729448
0.0124243726067
0.000197469492251
-0.00029795979783
-0.0123969703327
-2.12411846e-05
0.0124174906946
0.000308182164513
-9.62789348819e-06
0.0123429472829
0.000247708298079
5.58294046763e-06
-0.00023746052706
1.5582889432e-05
0.000168645650471
0.0116187689434
-0.000166083730363
5.69619604346e-05
0.0115947740959
0.000155142532671
0.0123678454931
-1.87137416858e-05
-0.000288545424889
0.000265128482137
2.01261560981e-05
0.0115986712201
0.000169677229294
-0.00034210175161
-7.69117403314e-06
0.0124714607331
0.000348163404382
-5.26860927804e-05
-0.0124397757053
0.00037268707495
0.0125304057287
-0.000369299866133
-7.24426743985e-05
1.8673243298e-05
0.000187994088387
-0.000181641598829
-0.0115874480967
1.65234425489e-05
0.000190363978462
0.0115923553953
-0.000331280883264
-6.43290223588e-05
0.000181717468219
0.000379890716987
0.0125405288224
-5.97701013128e-05
-0.0124428771916
0.000297773440116
-2.89060068341e-05
0.0124638141739
-0.000270315431723
0.0124737319359
0.000261404490943
5.94556729984e-05
0.0115646588166
2.61783768637e-05
-0.000164746752893
0.0115135745957
0.000158925113922
0.0124916911539
0.000285119164563
0.0115668549772
0.00032614950539
-8.54294556764e-06
0.0125001522289
-0.0125228109043
-0.000347794251878
0.000322976123189
0.012563855912
-0.0115574707764
1.76204957842e-05
0.0115671526853
1.538149951e-05
-0.000166944023582
0.000164199697432
0.00030785615681
0.0125547571844
-0.000166599339596
-0.0124519460655
-0.000139564195906
0.0124833316497
0.000170880026375
0.0124240979554
0.000138309041104
-0.0123965495781
0.000129864496134
9.96300070245e-05
0.0115446852693
0.0001330817072
0.0115771929534
-0.0116365395248
9.03830848841e-05
0.0124535119552
-0.0124198238401
0.000150480591483
0.0115127385246
0.000103214767149
-0.000196867674088
0.0125081034106
-9.93340052658e-05
0.000188416752227
-0.0124850796379
0.00021890286949
0.0124956459358
0.000110911301071
0.000116648369661
5.29413961386e-05
-0.011459023301
0.000121908015734