/*--------------------------------*- C++ -*----------------------------------*\
| =========                 |                                                 |
| \\      /  F ield         | OpenFOAM: The Open Source CFD Toolbox           |
|  \\    /   O peration     | Version:  v1906                                 |
|   \\  /    A nd           | Web:      www.OpenFOAM.com                      |
|    \\/     M anipulation  |                                                 |
\*---------------------------------------------------------------------------*/
FoamFile
{
    version     2.0;
    format      ascii;
    class       volScalarField;
    location    "5";
    object      alpha.water;
}
// * * * * * * * * * * * * * * * * * * * * * * * * * * * * * * * * * * * * * //

dimensions      [0 0 0 0 0 0 0];


internalField   nonuniform List<scalar> 
28582
(
0.999998799952
0.999999023295
0.999998794136
0.999998864256
1.00000040223
1.00000032407
1.00000585215
1.00000599144
0.0248597205775
0.0314850727634
6.32696243652e-06
1.00000637876
0.938157917998
0.936515766356
1.00000525207
1.000007896
0.93502558987
0.999855604929
0.999848620038
0.999998834725
0.999998360937
0.999997975682
0.999999116803
0.999998347761
0.99999775002
1.00000108344
1.00000077932
1.00000710864
1.00000222484
0.0338956086461
2.05669771295e-06
5.53660828002e-06
1.00000670898
1.00000831427
0.935871938638
0.935054632407
0.999911803443
1.00000021837
1.00000597591
1.00000488026
0.999816337717
0.909921876669
0.999806826828
0.999698076875
0.026284121927
0.0312890773975
0.000211720779807
0.000249321438565
0.0286107302217
0.000201715120727
0.999912173553
0.999954032772
0.937729839608
0.938847341803
0.999938972899
0.938263889783
0.999936931032
0.999954847869
0.999951230687
0.937269800056
0.937273106765
0.999947985921
0.937720694974
0.999953621405
0.999915120789
0.99994319873
0.933006610218
0.936016952649
0.999930445208
0.93420339384
0.999923920517
0.999846124996
0.927028524545
0.928151744807
0.99988541315
0.930288197095
0.931434161726
0.999890347046
0.999870360715
0.92970461666
0.931289137206
0.999888555816
0.934004454265
0.999886635673
0.933017107272
0.0239604628616
6.44938211483e-05
0.0242294601634
0.0243177921216
6.05870926309e-05
5.6048374394e-05
0.0339703718341
0.000284290021855
0.000289598593245
0.0362594437351
0.000370928684199
0.0357436154913
0.000357113058265
0.999860348597
0.999827639566
0.935865576717
0.938116006107
0.999854586759
0.999844043032
0.937269559634
0.999901018505
0.999931580219
0.935502584905
0.935238546838
0.999891207199
0.999903355306
0.936414439112
0.937665227667
0.936864260374
0.9999178479
0.999885979827
0.935523905827
0.99990663067
0.936937564896
0.999800991372
0.92312669721
0.92423251519
0.999762791923
0.919034301415
0.999741493153
0.919437065445
0.999690218721
0.999630287344
0.914688449988
0.909128505392
0.999694550617
0.99959735106
0.914292655407
0.999770565284
0.999825152509
0.925203296124
0.926769898365
0.921081593209
0.999739798331
0.919876156477
0.91481658391
0.907914051606
0.999582946166
0.999679668864
0.908438047057
0.999595712134
0.914072518278
1.00000111077
0.999999758411
0.0377705041744
1.52474465004e-06
1.0000078349
0.936258683534
1.00000414439
1.00000322376
0.904235366174
0.900700143385
0.885413664239
1.00000303636
1.00000682777
0.885240886112
0.887107899935
0.0248548308986
0.0385487870499
0.0399676148301
0.00035768029799
0.000377667655857
0.000380025077403
0.0415671288637
0.0433933638966
0.999956044071
0.999935969965
0.934616779907
0.935785183815
0.999938636427
0.934527035287
0.999960013269
0.999392609055
0.999542542343
0.898947223152
0.90342410766
0.999434717289
0.999494137921
0.897651764606
0.999360993713
0.999454228883
0.90196100308
0.894018257901
0.99948466638
0.895760229486
0.999316286947
0.999256531966
0.999186696897
0.887588308794
0.889388229675
0.999222375334
0.891160496495
0.999215376941
0.999179954471
0.999149533898
0.887383408313
0.885699676489
0.999200970426
0.886645554966
0.999173663083
0.999189926514
0.999239776532
0.886823455267
0.886238035512
0.999197033916
0.886482023995
0.999205180001
1.00000728926
1.00000716856
1.00000459887
1.00000137594
0.0260074696677
0.0285490758749
0.0282087360412
0.0302060287451
0.0290565529947
2.35269906767e-06
3.09588914887e-05
2.23793086605e-06
2.45610262127e-05
3.98850036973e-06
2.50514172912e-05
1.00000775639
1.00000773939
0.961650385612
0.960912424745
1.00000761455
0.960798229811
1.00000812129
1.00000864003
0.960911295463
0.957883530379
1.00001030439
1.00000535426
1.0000070774
0.959899509233
0.948320695924
0.952422361219
0.935531420849
1.00000998792
1.00001329088
0.944422871619
0.940473666371
0.932029939664
0.931927784574
1.00000432446
1.00000117319
0.948793853363
0.931562548396
0.928599151175
1.00000484673
1.00000081776
1.00000292479
0.928606245083
0.930630850463
0.926877385281
0.928040825633
0.930538195958
0.929035156089
0.024818641334
0.0248768728807
0.0254627619968
1.04248119137e-05
5.26466321136e-05
3.57739108275e-05
0.000114045959645
0.000230795517021
0.000382101515561
0.000309157132289
0.000375769496001
0.0247226514806
0.0250493784991
0.0276920900215
0.0271215920541
0.0290123427084
0.000100561407119
0.000171426690828
0.000161318600899
0.000208916450267
0.0284811228624
0.0294916860501
0.0291850482494
0.00030332543857
0.000331244016422
0.000317314649671
0.000349742812532
0.0298636099776
0.0297712652697
0.00019374185726
0.0002302182637
0.000221512628072
0.0299247679449
0.030185772939
0.0301514153601
0.000320443015928
0.000367741015601
0.000284171527083
0.000351774479878
0.999990233916
1.00000918162
0.961579427575
0.961307469287
0.999993412461
0.961305912066
1.00000499482
0.999981956551
1.00000307896
0.961134450153
0.961051611254
0.999984271541
1.00000258111
0.961175042154
0.999972404082
0.999993881404
0.961094540863
0.959945867688
0.999979791651
0.999995501178
0.961101318488
1.00001030696
0.999999076381
0.96118057597
0.960933024251
1.00000669967
1.00001131787
0.96126133351
1.00000085279
0.999990974102
0.959593626607
0.960976947168
0.999999458337
0.999999811104
0.961275823491
0.999952506798
0.999997129418
0.957558676092
0.958616599714
0.999981607584
0.999994244292
0.954349212163
0.999910365761
0.999937120291
0.952957729634
0.943232948844
0.99995420988
0.999877569717
0.948531340898
0.999947569063
0.999969749634
0.955584030205
0.946056181453
0.999979990753
0.999926447725
0.950513350956
0.999907810712
0.999842193954
0.938745478451
0.940100915293
0.999862563264
0.999877726545
0.944128309424
0.999893934667
0.999929803555
0.942363363365
0.94091538618
0.999951076615
0.999888488481
0.939689052642
0.999897867043
0.999936548954
0.941733810515
0.935966514657
0.999945935541
0.938107051504
0.999871904874
0.999862601777
0.999835109166
0.937027488934
0.930974025162
0.999849343655
0.999841616029
0.936044981931
0.99986653947
0.999859482062
0.933213507094
0.931426894001
0.999850673204
0.934717472083
0.99985089288
0.999868163354
0.999953083096
0.941798769541
0.946214423883
0.99990132292
0.999912787175
0.93855863994
0.999825367705
0.999805758655
0.935961795295
0.926900657724
0.999837308747
0.999773304663
0.931806124901
0.999786689569
0.999794898812
0.925985032329
0.931976417922
0.999757678552
0.999799279311
0.930554389776
0.999784152066
0.999792470789
0.928506460883
0.927098962361
0.999813068
0.999787580096
0.927200524852
0.999791472503
0.999821182548
0.929662269754
0.927576567289
0.999830871919
0.926985988593
0.999802060688
0.999756199518
0.999780587653
0.926222356616
0.926648460353
0.999757424256
0.999792027167
0.926378112864
0.999781441204
0.999787519705
0.926409343616
0.927135910622
0.999788733957
0.925993141929
0.999796452676
0.999833075226
0.999837977678
0.928749863627
0.933206707429
0.999838420963
0.999846311503
0.932654703316
0.999803928104
0.928393041045
0.99981922433
0.999998311867
0.999997739202
0.999998476039
0.999997307449
0.999992951859
0.999992226487
0.999998320622
0.999998494481
0.999999213214
0.999997381655
0.999996827924
0.999995390914
1.00002067902
1.00001109032
0.999961537282
0.999909738359
0.999926520759
0.999970517335
0.999990811593
0.999996250999
0.999998380399
0.999990224394
0.999982355693
0.999991052171
0.999990712619
0.999983020722
0.999983408215
0.999993498764
0.999996123531
0.999995682182
0.999995858212
0.999996308241
0.999997311941
0.999998066693
0.99999785533
0.999997679371
0.999995739276
0.999995384302
0.99999627822
0.999998452611
0.999999521941
0.999999516772
0.999999386451
0.999998397147
0.999999126863
0.999998789532
0.999997689823
0.999997495087
1.00009062739
1.00003092005
0.999714422412
0.999709954049
0.99991273678
0.999992548251
0.99999990392
0.999995968383
1.00003967168
1.0000137602
0.999924301753
0.999876322831
0.999934485069
0.999989593461
0.999998132384
0.999998378495
1.00000291127
0.99999906702
0.999987167606
0.999985590955
0.99999026788
0.999996469785
0.999998733265
0.999998926541
0.99999849919
0.999998386909
0.999999056781
0.999999839417
0.99999977919
0.999999481614
0.999998761519
0.999998616655
0.999999689805
0.999999857959
0.999999717299
1.00000008056
1.00011960781
1.0000356376
0.999725647577
0.999818043008
0.999975080945
1
1.00000327381
1.00000113337
1.00008457387
1.00003898812
0.999966151385
0.999952517557
0.999976474514
0.999997942604
1.00000161013
1.00000118417
1.00000689109
1.00000300465
0.99999945781
0.999996469983
0.999997189514
0.999999631387
1.00000036506
1.00000081489
1.00000083217
1.00000021236
1.00000021853
1.00000043066
1.00000054162
1.00000065959
1.00000087806
1.00000076568
1.00000080194
1.00000078231
1.00000079161
1.00000085955
1.00000135491
1.00000164608
1.00000176221
1.00000197495
1.00000235669
1.00000241635
1.00000222966
1.00012508776
1.00005930328
0.999947418627
0.99989288947
0.9999935781
0.999995291105
1.000004241
1.00000667147
1.00001557187
1.00001188722
1.00000716279
1.00000866854
1.00000723896
1
0.999993709093
0.999999589866
1.00000486885
1.00000567387
1.00000318183
1.00000049062
0.999998242648
0.999999729207
1.00000268283
0.999999998861
0.999996191535
0.999996875238
0.9999962773
1.00000142994
1.00000381028
1.00000536343
1.00000418776
1.00000258735
0.999999042738
0.999995804632
0.999998022986
0.999996925185
1.00000650807
1.00000483362
1.00000403304
1
0.999999302321
0.999999511894
0.99999678001
0.999998747319
0.999998058792
0.999997391809
0.0234136186354
0.0233184504735
0.0247521817967
0.0291304139435
0.0384860080005
0.0435141502466
0.0497905959339
0.0522394932705
0.027959978207
0.026816091424
0.0258757725917
0.0252467665562
0.0254302619785
0.0306493117142
0.0386801121135
0.0435746484435
0.0504214745888
0.0527694153578
0.0290314292539
0.0276640240724
0.0280675644575
0.0283124315703
0.0289234590565
0.033183263224
0.0390290014541
0.0435552353452
0.0498077681124
0.052076001191
0.0270178479211
0.0262744678862
0.0262335851138
0.0291580021056
0.0345202030726
0.0392435562534
0.0432369943596
0.0478505409548
0.0502956242
0.0248278538147
0.0297869618355
0.0343649177272
0.0377630395893
0.0409275334268
0.0448601518995
0.047713187949
0.0408826393669
0.0442661520026
0.0458320921714
1.05670479408e-05
4.55531894638e-07
2.57067189249e-08
2.47514490496e-09
3.65914673976e-08
8.64853743497e-06
4.15574705798e-05
7.11427337609e-06
-5.21001448357e-24
7.52310047562e-05
8.21393038149e-06
2.44339633558e-06
6.11222880148e-07
5.7032576443e-07
1.67191775674e-06
1.41195777074e-05
4.90370990388e-05
5.34494584522e-06
-6.53647593826e-24
8.7642812239e-05
2.10946242858e-05
5.75799789414e-06
1.54223657997e-06
9.38066387911e-07
1.24241672267e-06
7.86062392363e-06
4.05926032801e-05
3.0957326903e-06
5.64237288395e-37
5.63784727044e-05
3.90117258403e-06
9.42782623892e-07
4.63079065224e-07
1.10404441453e-06
6.81492535708e-06
4.08649240415e-05
2.29066529499e-06
6.61744490041e-25
4.90486637123e-05
2.45817648274e-06
8.28761144957e-06
2.09140537352e-05
4.14165440377e-05
8.27180612553e-26
0
7.59629901497e-05
-3.29818646885e-25
-2.76774539103e-26
8.81797317634e-05
1.00001674412
1.0000002486
0.999997833876
1.00007821932
1.00005717986
1.00004192819
1.00002932979
1.00000500989
0.999994991667
0.999990568477
1.0000303293
1.00000721552
1.00001397549
0.999998974224
0.999996031124
0.999996626592
0.999994788582
0.99999938087
0.99999766458
0.999996256292
0.999994751228
0.999979007601
0.99998818589
0.999981245375
0.99999098681
0.999979569747
0.999990116933
0.999982927538
1.00006041457
1.00009141072
1.00006460361
1.00010749155
1.00007755703
1.00010115515
1.00006432606
1.00000896377
1.00003226637
1.00000756458
1.00003701447
1.00000225338
1.0000200999
0.999955136857
1.00002759026
0.9999967141
0.999991874444
1.0000683841
1.00005314764
1.00001997327
1.00001598328
1.00000178544
0.999993002668
0.999991588377
1.00002754051
0.999996684615
1.0000096733
1.00000443817
1.00008257508
1.00009427853
1.00006416407
1.0001209472
1.00008067609
1.00012954483
1.00009455384
0.999989421463
1.00002770248
0.999977946661
1.00003303933
0.999959980744
1.00004938671
1.00001332397
1.00006730971
1.00003225774
1.00002699322
1.00006547854
1.00005302488
1.00000987569
1.00000884253
1.00000400772
1.00001816259
1.00001030185
1.00003371911
1.0000151349
1.00000753865
1.00000501922
1.00012800396
1.00007704622
0.920679460753
0.920120594102
1.00009940694
1.00007561503
1.00006318907
0.92414353689
0.931240252799
0.922809458376
0.930557444477
1.00001962099
1.00004427714
1.00002271877
0.931458741008
0.932885775159
0.931652508567
0.93448247393
0.999843128326
1.00000307885
0.999975724568
0.93379435078
0.935669271668
0.935259506259
0.936533887995
0.999975721741
0.999970550552
0.99998689806
0.935845065803
0.921135887864
0.936605734951
0.917871067944
0.999990007544
0.999990603004
0.999986278619
0.90712629433
0.870384666426
0.904091582303
0.869764231994
1.00000201134
0.999987275817
0.999995222482
0.869926510238
0.873896175315
0.869755273595
0.872745909249
1.00000717473
1.00001075838
1.00001553612
0.877302511999
0.881927014816
0.875453244057
0.879536270877
1.00000719368
1.00001603323
1.00001284721
0.886251584355
0.875277272028
0.883932016182
0.87132973437
1.00001698433
1.0000162386
0.936650898306
0.920673193492
0.931046842603
0.923830408754
1.00001423811
1.00001500144
1.00001378584
0.91879042492
0.919715572165
0.922906029436
0.91979579918
1.00000897997
1.00001230858
1.00000825365
0.92185227576
0.928033741
0.920055101674
0.922129127007
1.00000725981
1.00000388882
1.00000228672
0.929639832493
0.934890904012
0.923939461014
0.929118502386
1.00001046615
1.0000031404
1.00000426056
0.935697130486
0.936779623894
0.930760437774
0.933285651731
1.00000422671
1.00000522414
1.00000284291
0.935922126687
0.915696839375
0.931623994662
0.911768723951
0.999993696031
0.999999725158
0.999991247935
0.902861514463
0.871090550526
0.900193239919
0.872222970231
0.999998231842
0.999996766424
0.999995973008
0.870556523838
0.872988459072
0.871643512008
0.873249375069
1.00000404347
0.999999862122
0.999999888393
0.87533613135
0.878885611842
0.8754336893
0.878926962903
1.00000427625
0.999999478647
0.999999620815
0.883313543355
0.871353780111
0.883288008681
0.872525219703
1.00000528632
1.00000431601
1.00000445939
0.93018043071
0.924016630834
0.927980863183
0.924421920502
1.00000227007
1.00000353427
1.00000212561
0.923398679606
0.919906113504
0.924596967008
0.922787513678
0.999998862108
1.00000162897
1.00000069476
0.920078386198
0.921762167354
0.923981194683
0.92670718089
0.999999237479
1.00000156402
1.00000129128
0.923391882419
0.927719513926
0.927721219202
0.928541511529
1.00000339211
1.00000225425
1.00000364879
0.929205299008
0.93183862105
0.928579461289
0.929759384999
1.00000135189
1.0000038492
1.00000387968
0.930555129799
0.911354600822
0.92772738327
0.906407121037
0.999997583188
0.999999942727
0.999994952866
0.899823088697
0.872445106205
0.895973292039
0.874049234044
0.999999601109
1.00000091415
0.999999612924
0.872228988566
0.873501674352
0.874346285175
0.87595721494
0.999996285416
1.00000178581
1.00000098131
0.875659060825
0.879288691095
0.877883110761
0.882390939929
0.999997372031
0.999999626103
0.999999984555
0.883643809356
0.873537811186
0.885810903243
0.877045174434
0.929120286278
0.925659028799
1.00000254831
1.00000599934
0.925839442083
0.924836379778
0.933491107981
1.0000053589
1.00000614615
1.00000643315
0.926063996158
0.928955404091
0.933887721893
0.934584669044
1.0000059904
1.00000737734
1.00000712557
0.929811086457
0.929940580696
0.934628806859
0.932574539525
1.00000502792
1.00000640657
1.00000522068
0.929513911565
0.929431734351
0.930857752007
0.927156256315
0.999999889703
1.00000264368
1.00000108813
0.926822643013
0.905118813944
0.923657882923
0.906098329118
0.99999761506
0.99999996695
0.999998113481
0.895623622065
0.8766449533
0.898803119504
0.885672585327
0.999999495001
1.00000296122
1.00000175228
0.876484755867
0.877633968454
0.884408395026
0.884909437475
0.999996966324
1.00000263126
1.0000013797
0.879046919347
0.882937717805
0.885225491518
0.886603837071
0.999997505075
0.999999054646
0.999999424922
0.886331741236
0.87691273775
0.888507153984
0.876037666285
1.00000692898
1.00000810983
0.934736273132
0.932226279735
0.935041926976
1.00000541654
1.00000675026
1.00000579942
0.930283397553
0.926723505478
0.934164479267
0.926920571244
1.00000237395
1.00000392403
1.00000255727
0.923397476256
0.907266459362
0.923107879823
0.910019619274
1.00000020792
1.00000219038
1.00000026026
0.900630608287
0.888173066744
0.904422332417
0.891510002889
1.00000066534
1.00000383715
1.00000191846
0.886564524113
0.886580873926
0.88951956566
0.888579123668
0.999997519001
1.00000202151
1.00000121053
0.886704886565
0.886943488947
0.888579511161
0.887030741297
0.999996104507
0.999998281806
0.999998054774
0.888254054975
0.877180930666
0.887953669897
0.876311292006
1
0.890627949188
0.999998581138
0.889180808327
0.88786555178
0.999996822179
0.887980992095
0.887270956
0.999998130718
0.888330032567
0.878189527547
0.000297403111456
0.000150090935865
0.000272562873967
0.000125022921259
0.0252668580647
0.0256248320677
3.88389609454e-05
1.64387729643e-05
3.74950622751e-05
2.29272514194e-05
0.0227100225638
0.0245392713725
0.0233783035568
7.24135795872e-06
1.03717304638e-07
1.50539984706e-05
5.45381174381e-06
0.0240809205662
0.0234032522817
0.0238653820536
1.12393012346e-07
1.13349452441e-07
7.78844064958e-07
8.27376195322e-07
0.0261973416022
0.024678424017
0.0264034851517
4.16147846629e-07
4.22044882568e-06
1.14015281314e-06
1.09551536181e-05
0.0341485636855
0.0295260195665
0.0344393020754
7.28732430833e-05
0.000358006901557
0.000108955580214
0.000401017928658
0.0413130355919
0.0386396745867
0.0413759435861
0.000613266883825
0.000708329225254
0.000660912042414
0.000728816275742
0.0477705592584
0.0435836098504
0.0479706974183
0.000522695453811
0.000399548449867
0.000520038906581
0.000408132230652
0.0517673098062
0.0503185545082
0.0524684209034
0.000254618993139
0.000173680456262
0.00027310931937
0.000203098146192
0.0510611779863
0.0527630940735
0.0515475867666
0.000319426678156
0.0014350904218
0.000413549186443
0.00155201551454
0.0273998992881
0.0284886937627
0.027861578252
0.000247290682723
0.000137211841922
0.00027407772655
0.000178659029407
0.0262153307749
0.0272732035181
0.0270059828007
8.44017397413e-05
3.84867061555e-05
0.000131373660147
8.88384308778e-05
0.0256856731853
0.0273300198812
0.0275646749048
1.87682631222e-05
2.63794725165e-05
5.09019024733e-05
3.79428077737e-05
0.024824217849
0.0272337976232
0.0272554936252
3.82505961081e-05
3.01719666499e-05
5.08138117475e-05
6.93268294093e-05
0.0271790173742
0.0275515838815
0.0290182685595
3.5772236791e-05
7.3210597087e-05
9.75303997103e-05
0.000156449030873
0.0350726590345
0.0322313571314
0.0357383214217
0.000216876614434
0.000432046020421
0.000266625526683
0.000426728654078
0.0412619778924
0.038764027549
0.0411698163775
0.000683446516335
0.000739887965631
0.000660531413849
0.000723431233772
0.0479300551644
0.0435401543332
0.0478141613416
0.000499842360966
0.000395241402077
0.000481976913594
0.000387619876115
0.0527579352377
0.0502091943707
0.0525479751874
0.000283582799001
0.000233665816122
0.000282856385096
0.000233946290429
0.051783734563
0.0524116334911
0.0512957795371
0.000499852118571
0.00169100117306
0.000503878338966
0.00171876254975
0.0282263545189
0.0291853575275
0.0282367975965
0.000337027096645
0.000268265138915
0.000346993522806
0.000319035403993
0.0277994268237
0.0276505807935
0.0275584261018
0.000188484948511
0.000126657980394
0.000244645610806
0.000163655767296
0.0280576457235
0.0274353643303
0.0272958951925
7.86786488945e-05
4.80234576747e-05
0.000104270663486
6.4209996017e-05
0.028496861864
0.0275684854241
0.0282956004211
4.16923734494e-05
5.97851846296e-05
3.88389139226e-05
4.9064658649e-05
0.0301817678665
0.0294466743226
0.0310754265701
8.97116314662e-05
0.000160050709767
8.42967611599e-05
0.000180450048014
0.0362971647394
0.0340310823758
0.0368591942792
0.000262177927195
0.000396823726873
0.000310063447808
0.000414611692534
0.0412077617819
0.0393447770722
0.0410627503086
0.00062418704791
0.000686113488122
0.000618461769308
0.000668393776492
0.047608304646
0.0436273272179
0.0470433034242
0.000443711370465
0.000345107532289
0.000410583473442
0.000312587704758
0.0521073324314
0.0490361055671
0.0509906352129
0.000242552615318
0.00017569150079
0.000209844916258
0.000139774092845
0.0510057039777
0.0512460401679
0.0501040398438
0.000352500417151
0.00130879783235
0.000271655083517
0.00117196638357
0.0265947724955
0.0255078663074
0.000243277502397
0.000154110292137
0.000114580576116
0.025983682668
0.0250669470775
0.0247433328546
9.67383981795e-05
5.77630369638e-05
8.12891576468e-05
4.88991694974e-05
0.027289544326
0.0252342149222
0.0268627058941
4.45424159823e-05
5.97832011037e-05
5.78093556819e-05
7.73268108983e-05
0.0314615693101
0.0292901062026
0.0317224885773
9.3541443677e-05
0.000197413813658
0.000126308138122
0.000222224781058
0.0370427213969
0.0344477301856
0.0366337834015
0.000322559617852
0.000397950002956
0.00030798062572
0.000377427172544
0.0406059745067
0.0385190903928
0.0397620655192
0.000616911171056
0.000651132260437
0.000610658694697
0.000619046396548
0.0459513208903
0.0419886659432
0.0443349027527
0.000355077285042
0.000259300314258
0.000316640925462
0.000239371134854
0.0495977750472
0.0463363337654
0.0479955617356
0.000177622322595
0.000110692737504
0.000170287183814
0.000112894872271
0.0495814040584
0.04897060296
0.0483728939795
0.000214069327957
0.00105118868588
0.000220296337985
0.00113405502494
0.0267862704811
0.026531825449
6.76241803063e-05
9.80952333953e-05
8.46355288565e-05
0.000125980570671
0.0320027817189
0.0289641772444
0.0317300376475
0.000131725360582
0.000234006934229
0.000183366815418
0.000246581353164
0.0360788144137
0.0340465577204
0.0356572307325
0.000339516312055
0.000459874313862
0.000341904786476
0.000471593333669
0.0390946080251
0.0373668638043
0.0388978107878
0.000648086605394
0.000607110951334
0.000601562801139
0.000574532474814
0.0429757710358
0.0405006259787
0.0425586776847
0.000289115610215
0.000209602811072
0.000294395943844
0.000228518057783
0.0466831642838
0.0441944126195
0.0460083541767
0.000158422958226
0.000139766196419
0.000189343968531
0.000202669930745
0.0469348150462
0.046661510818
0.045924208222
0.000301428019092
0.00145177305152
0.000463284208591
0.00165735079357
0.0393403709262
0.000358796202217
0.0430206591166
0.000296747839359
0.000240001004326
0.000311470981002
0.00023807767355
0.0456309896316
0.000203013699688
0.000227613182182
0.000201891335985
0.000220689704376
0.0445888211375
0.000532897535766
0.00187353402404
0.000466754622649
0.00170247227321
0.999911549012
0.999905847878
0.917967547642
0.920169671318
0.999922739608
0.916801317968
0.999899961213
0.999885591432
0.999882892092
0.919526134241
0.917431386316
0.999897522352
0.999874858009
0.917064194528
0.999975855569
0.999953224473
0.928362984806
0.924665317462
0.999938429715
0.928052337246
0.999994046592
0.999986776
1.0000543342
0.930689205581
0.931698659019
1
0.93052525615
1.00004458839
0.999966763468
0.999900026764
0.923659485641
0.925608088464
0.999918718809
0.999900971907
0.926858825841
0.999982591678
0.999881497439
0.932046313208
0.928499001601
0.999985190171
0.999892290289
0.929996476977
1.0000164983
1.00004262239
0.931752623513
0.932037672157
1.00002618242
0.932314618059
1.0000251719
1.00000975616
0.999969476204
0.932179348501
0.93332200093
0.999991995278
0.932678512082
1.0000006457
1.00000989791
0.999861727374
0.932939216943
0.932582715446
0.99999835735
0.999873785729
0.933364268929
1.00001462116
0.999995396775
0.934274668398
0.933518019427
1.00000969971
0.999936896965
0.933735049182
0.999979755353
0.999948523984
0.934658383868
0.934172258096
0.999984047802
0.934962547935
0.999939365164
0.999969434915
0.999936907162
0.935403654795
0.935783314854
0.999975720341
0.935507258197
0.999932210774
1.00000609711
1.00001408985
0.934949639005
0.93585460273
1.00000873305
1.00002416581
0.935529185105
1.00000945751
1.00001414578
0.936076843557
0.93636583901
1.00000878955
1.00002615285
0.93591646595
0.999972102904
0.999954486023
0.93539300708
0.936068230764
0.999998511028
0.935723272329
0.999970746968
0.999933462957
0.999824787624
0.930433041291
0.921350049786
0.999826312988
0.930742651249
0.999941597831
0.999991867808
1
0.936228302231
0.935013366169
1
0.999979583506
0.93530462541
0.99995938416
0.999777646184
0.919943384788
0.92828878047
0.999841006383
0.999915994924
0.929719527016
0.999365933969
0.999648792087
0.892658505889
0.907154416215
0.99962344518
0.892385470812
0.99937357478
0.999036543042
0.998813380311
0.880359514191
0.869617912189
0.998734161472
0.879997841625
0.999048560626
0.999358656137
0.999586190072
0.905989494181
0.890567141786
0.999636526296
0.999315824867
0.891555997573
0.999038418018
0.998821422243
0.869802545535
0.879369826129
0.998779242535
0.999026114958
0.879715628257
0.998484240702
0.998638384302
0.870357405906
0.869159319399
0.998524617563
0.86936803857
0.998720015903
0.998521255401
0.998854754193
0.871233526801
0.872915044716
0.998569666479
0.870199822542
0.998807439673
0.998693551342
0.998693013364
0.86927610852
0.869926158055
0.998644330536
0.998740907088
0.869565503785
0.998736888312
0.998779324405
0.87289982622
0.870503705577
0.998763961112
0.998754993581
0.8703060017
0.998741334027
0.99892085598
0.879711186241
0.875941046505
0.998654136659
0.878271398112
0.998999075309
0.998816741974
0.999004985395
0.880629466233
0.881696436918
0.998867557508
0.879913730391
0.99900828591
0.998897049222
0.998852476571
0.875618756498
0.877545892087
0.99881099277
0.998947135475
0.877792662217
0.998960757863
0.998995723856
0.880835685067
0.878318886678
0.998991749154
0.998984368263
0.879242610634
0.998901550693
0.999025382811
0.885517927855
0.885417226472
0.998954878772
0.884707240005
0.99896335361
0.998623945639
0.998873159572
0.868062884645
0.873593195175
0.867704178277
0.998836206935
0.998672986893
0.998956702503
0.999053683896
0.884613955893
0.88254254785
0.999033733109
0.998968698015
0.883237369047
0.998667144642
0.998825674618
0.873465077952
0.865213732292
0.998629557897
0.866001111127
0.998877112615
0.999884314283
0.999918463202
0.930144517233
0.933046420428
0.999892674006
0.930347627533
0.999868834051
0.999878350119
0.999807698669
0.923736222615
0.921692678628
0.999837727907
0.999812343988
0.926920211111
0.999838936071
0.999861134526
0.93123219524
0.928706666307
0.999862462396
0.92993721335
0.999837697815
0.999818706783
0.999837082777
0.923030533915
0.924919847199
0.999774182865
0.999859031641
0.927828619389
0.999807470919
0.999794733443
0.91705084944
0.9186249031
0.999810399705
0.9997906117
0.918800346226
0.999806268365
0.999840233383
0.917768033783
0.919588059614
0.999829289595
0.999806485605
0.919250652179
0.999773501807
0.999815048422
0.919545730058
0.919914677924
0.999771775041
0.999806861523
0.919666328825
0.999758095962
0.999773996859
0.919703718059
0.91936400735
0.999741714875
0.999792088776
0.919649172236
0.999784032123
0.999836219337
0.923995953388
0.920823263744
0.999830665782
0.999801279346
0.922409419843
0.999755335441
0.999723336672
0.926284989096
0.925219043817
0.999805165575
0.999699668972
0.923786580163
0.999727891301
0.999753188664
0.920274026832
0.920158678407
0.999742434361
0.999741625185
0.921184620292
0.999709451218
0.999696887344
0.923260920548
0.920771266179
0.999669179246
0.99971594804
0.922100801737
0.999621941772
0.999673834308
0.9314097589
0.927278559533
0.999670727802
0.999623475401
0.929797684417
0.999642989389
0.999804336739
0.933321573224
0.933356731111
0.999706718416
0.999717907727
0.931914436548
0.999648959887
0.999690571342
0.925220116524
0.925681253431
0.999661005246
0.999685235208
0.92758510947
0.999653683065
0.999656572473
0.931145397551
0.9273591743
0.999676076317
0.999667377647
0.929609873792
0.999866688363
0.999905339547
0.936231693284
0.93436983988
0.999978255505
0.999801679044
0.935519700101
0.999895033115
0.999994703951
0.936526820543
0.936030789439
0.999995445918
0.999925139737
0.935956400501
0.999760146363
0.999655177524
0.932388283284
0.932212161983
0.999712325966
0.999679839611
0.933621177494
0.999804927944
0.999759845342
0.934380469741
0.933093164035
0.999837794626
0.999730415312
0.934529008477
0.999876767383
0.9999849104
0.933376748064
0.934525458808
0.99995077033
0.999912814162
0.931146107824
0.99981163444
0.999732602464
0.926187260836
0.913522142575
0.999871233398
0.999683435927
0.923614968373
0.999803412186
0.999757373216
0.932684789972
0.928361707488
0.999825165959
0.999745216785
0.929167687585
0.999756726497
0.999616006546
0.912380883238
0.921327791007
0.99965471419
0.999708496722
0.922067469506
0.999278303431
0.999543336894
0.890199146596
0.901337818446
0.999287421763
0.999487834236
0.889341534299
0.999056710168
0.998833976353
0.879947071123
0.871403735639
0.999019393048
0.998891748171
0.879649094135
0.99928244679
0.999475950961
0.900837066068
0.888943807673
0.999491212651
0.999280615288
0.889218989023
0.999052888255
0.998972202954
0.872066075543
0.879900174374
0.998890127026
0.999085693996
0.879859447816
0.998860159564
0.998710821761
0.870582688641
0.870876683003
0.998767102287
0.998835179054
0.870778393697
0.998890910355
0.998803743512
0.871059397962
0.87307658783
0.998787611172
0.998902442043
0.871199878303
0.998861313639
0.998881889878