/*--------------------------------*- C++ -*----------------------------------*\
| =========                 |                                                 |
| \\      /  F ield         | OpenFOAM: The Open Source CFD Toolbox           |
|  \\    /   O peration     | Version:  v1906                                 |
|   \\  /    A nd           | Web:      www.OpenFOAM.com                      |
|    \\/     M anipulation  |                                                 |
\*---------------------------------------------------------------------------*/
FoamFile
{
    version     2.0;
    format      ascii;
    class       volVectorField;
    location    "5";
    object      force.turbine;
}
// * * * * * * * * * * * * * * * * * * * * * * * * * * * * * * * * * * * * * //

dimensions      [1 -2 -2 0 0 0 0];


internalField   nonuniform List<vector> 
28582
(
(0 0 0)
(0 0 0)
(0 0 0)
(0 0 0)
(0 0 0)
(0 0 0)
(0 0 0)
(0 0 0)
(0 0 0)
(0 0 0)
(0 0 0)
(0 0 0)
(0 0 0)
(0 0 0)
(0 0 0)
(0 0 0)
(0 0 0)
(0 0 0)
(0 0 0)
(0 0 0)
(0 0 0)
(0 0 0)
(0 0 0)
(0 0 0)
(0 0 0)
(0 0 0)
(0 0 0)
(0 0 0)
(0 0 0)
(0 0 0)
(0 0 0)
(0 0 0)
(0 0 0)
(0 0 0)
(0 0 0)
(0 0 0)
(0 0 0)
(0 0 0)
(0 0 0)
(0 0 0)
(0 0 0)
(0 0 0)
(0 0 0)
(0 0 0)
(0 0 0)
(0 0 0)
(0 0 0)
(0 0 0)
(0 0 0)
(0 0 0)
(0 0 0)
(0 0 0)
(0 0 0)
(0 0 0)
(0 0 0)
(0 0 0)
(0 0 0)
(0 0 0)
(0 0 0)
(0 0 0)
(0 0 0)
(0 0 0)
(0 0 0)
(0 0 0)
(0 0 0)
(0 0 0)
(0 0 0)
(0 0 0)
(0 0 0)
(0 0 0)
(0 0 0)
(0 0 0)
(0 0 0)
(0 0 0)
(0 0 0)
(0 0 0)
(0 0 0)
(0 0 0)
(0 0 0)
(0 0 0)
(0 0 0)
(0 0 0)
(0 0 0)
(0 0 0)
(0 0 0)
(0 0 0)
(0 0 0)
(0 0 0)
(0 0 0)
(0 0 0)
(0 0 0)
(0 0 0)
(0 0 0)
(0 0 0)
(0 0 0)
(0 0 0)
(0 0 0)
(0 0 0)
(0 0 0)
(0 0 0)
(0 0 0)
(0 0 0)
(0 0 0)
(0 0 0)
(0 0 0)
(0 0 0)
(0 0 0)
(0 0 0)
(0 0 0)
(0 0 0)
(0 0 0)
(0 0 0)
(0 0 0)
(0 0 0)
(0 0 0)
(0 0 0)
(0 0 0)
(0 0 0)
(0 0 0)
(0 0 0)
(0 0 0)
(0 0 0)
(0 0 0)
(0 0 0)
(0 0 0)
(0 0 0)
(0 0 0)
(0 0 0)
(0 0 0)
(0 0 0)
(0 0 0)
(0 0 0)
(0 0 0)
(0 0 0)
(0 0 0)
(0 0 0)
(0 0 0)
(0 0 0)
(0 0 0)
(0 0 0)
(0 0 0)
(0 0 0)
(0 0 0)
(0 0 0)
(0 0 0)
(0 0 0)
(0 0 0)
(0 0 0)
(0 0 0)
(0 0 0)
(0 0 0)
(0 0 0)
(0 0 0)
(0 0 0)
(0 0 0)
(0 0 0)
(0 0 0)
(0 0 0)
(0 0 0)
(0 0 0)
(0 0 0)
(0 0 0)
(0 0 0)
(0 0 0)
(0 0 0)
(0 0 0)
(0 0 0)
(0 0 0)
(0 0 0)
(0 0 0)
(0 0 0)
(0 0 0)
(0 0 0)
(0 0 0)
(0 0 0)
(0 0 0)
(0 0 0)
(0 0 0)
(0 0 0)
(0 0 0)
(0 0 0)
(0 0 0)
(0 0 0)
(0 0 0)
(0 0 0)
(0 0 0)
(0 0 0)
(0 0 0)
(0 0 0)
(0 0 0)
(0 0 0)
(0 0 0)
(0 0 0)
(0 0 0)
(0 0 0)
(0 0 0)
(0 0 0)
(0 0 0)
(0 0 0)
(0 0 0)
(0 0 0)
(0 0 0)
(0 0 0)
(0 0 0)
(0 0 0)
(0 0 0)
(0 0 0)
(0 0 0)
(0 0 0)
(0 0 0)
(0 0 0)
(0 0 0)
(0 0 0)
(0 0 0)
(0 0 0)
(0 0 0)
(0 0 0)
(-0.00203224642011 2.69389148633e-05 0)
(0 0 0)
(0 0 0)
(0 0 0)
(0 0 0)
(-2.67508278691e-05 5.70566828995e-08 0)
(0 0 0)
(-2.73513877782e-06 -3.44628942669e-09 0)
(0 0 0)
(0 0 0)
(0 0 0)
(0 0 0)
(0 0 0)
(0 0 0)
(0 0 0)
(0 0 0)
(0 0 0)
(0 0 0)
(0 0 0)
(0 0 0)
(-0.0163583821961 0.00044796166868 0)
(0 0 0)
(0 0 0)
(0 0 0)
(-0.0305300148737 0.0005447982092 0)
(0 0 0)
(0 0 0)
(-0.0290090193431 0.000777698943439 0)
(-0.130009833912 0.00348541635533 0)
(-0.0826484394954 0.00147483458546 0)
(-0.79305245324 0.0141682366172 0)
(-0.0061322618669 3.4128288378e-05 0)
(-0.0815561274561 0.00145534263154 0)
(0 0 0)
(0 0 0)
(0 0 0)
(0 0 0)
(0 0 0)
(-0.016358293008 0.000447959226331 0)
(0 0 0)
(0 0 0)
(0 0 0)
(-0.0299611134882 0.000534646348569 0)
(0 0 0)
(0 0 0)
(0 0 0)
(0 0 0)
(0 0 0)
(0 0 0)
(0 0 0)
(0 0 0)
(-1.58698763659e-05 5.68280917074e-08 0)
(0 0 0)
(-1.01857154672e-05 3.64738047941e-08 0)
(-0.000155851969492 1.34248983915e-06 0)
(-0.000784177059988 6.75480546416e-06 0)
(-0.000100535530585 8.6600078731e-07 0)
(-0.000473452203265 4.07825948094e-06 0)
(0 0 0)
(0 0 0)
(-0.000212963630169 9.98918294155e-07 0)
(0 0 0)
(0 0 0)
(0 0 0)
(0 0 0)
(0 0 0)
(0 0 0)
(-0.00908695317339 0.000120454220257 0)
(-0.000443115466778 4.52783844241e-06 0)
(-0.00207598200259 2.75186620442e-05 0)
(-3.59214548375e-05 2.56462712045e-07 0)
(-0.000168546339749 1.45183759484e-06 0)
(-4.80417809181e-06 -6.05328998148e-09 0)
(-3.71983953691e-05 2.65579481768e-07 0)
(0 0 0)
(0 0 0)
(0 0 0)
(0 0 0)
(0 0 0)
(-0.000229534010058 1.07664262483e-06 0)
(0 0 0)
(0 0 0)
(0 0 0)
(0 0 0)
(0 0 0)
(0 0 0)
(0 0 0)
(0 0 0)
(0 0 0)
(0 0 0)
(0 0 0)
(0 0 0)
(0 0 0)
(0 0 0)
(0 0 0)
(0 0 0)
(0 0 0)
(0 0 0)
(0 0 0)
(0 0 0)
(-0.00534443968897 3.28925658162e-05 0)
(0 0 0)
(0 0 0)
(0 0 0)
(0 0 0)
(0 0 0)
(-0.00492461481776 2.7407289235e-05 0)
(0 0 0)
(0 0 0)
(0 0 0)
(0 0 0)
(0 0 0)
(0 0 0)
(0 0 0)
(0 0 0)
(0 0 0)
(0 0 0)
(0 0 0)
(0 0 0)
(0 0 0)
(0 0 0)
(0 0 0)
(0 0 0)
(0 0 0)
(0 0 0)
(0 0 0)
(0 0 0)
(0 0 0)
(0 0 0)
(-0.0370058466317 0.00079261104745 0)
(-0.00906694301518 0.000117430371483 0)
(-0.0147964713748 0.000191636268947 0)
(-0.0105322574776 0.000157262979312 0)
(-0.0198066238729 0.000424228880657 0)
(0 0 0)
(0 0 0)
(0 0 0)
(0 0 0)
(0 0 0)
(0 0 0)
(0 0 0)
(0 0 0)
(0 0 0)
(0 0 0)
(-0.0054506530512 3.03348851072e-05 0)
(0 0 0)
(-0.00820177935537 0.000122465317605 0)
(0 0 0)
(0 0 0)
(-0.133025686764 0.0028406220632 0)
(-0.103604221728 0.00221235796814 0)
(-0.200917528354 0.00358948146574 0)
(-0.0440743988598 0.000786493346618 0)
(-0.248538889999 0.00530728366579 0)
(-0.053840573106 0.00115318623756 0)
(-0.10559133226 0.00188424306244 0)
(-0.281616487515 0.00601362058152 0)
(-0.982976111629 0.020990409433 0)
(-0.42505855965 0.00759386119378 0)
(-0.422458215726 0.00754740488707 0)
(-0.526154131823 0.011235461901 0)
(-0.226642179494 0.00404906385875 0)
(-0.526115217187 0.0112346309204 0)
(-0.0628349179849 0.00134177284635 0)
(-0.00929357865563 0.000138767578648 0)
(-0.0207333374038 0.000369979678524 0)
(-0.0205995372941 0.000367592058982 0)
(-0.0254314912516 0.000544705303456 0)
(-0.0254312948938 0.000544701097759 0)
(-0.0496845958828 0.000886605492126 0)
(-0.133022045763 0.00284054431349 0)
(-0.10359694291 0.00221220253672 0)
(-0.198968797005 0.00355466650899 0)
(-0.0436304115192 0.000778570536588 0)
(-0.053838538922 0.00115314266832 0)
(-0.105033279146 0.00187428478569 0)
(-0.248514014164 0.00530675246879 0)
(0 0 0)
(0 0 0)
(0 0 0)
(0 0 0)
(0 0 0)
(0 0 0)
(0 0 0)
(0 0 0)
(0 0 0)
(0 0 0)
(0 0 0)
(0 0 0)
(0 0 0)
(0 0 0)
(0 0 0)
(0 0 0)
(0 0 0)
(0 0 0)
(0 0 0)
(0 0 0)
(0 0 0)
(0 0 0)
(0 0 0)
(-0.00539126549472 3.00043715549e-05 0)
(0 0 0)
(-0.00820137375697 0.00012245926139 0)
(0 0 0)
(0 0 0)
(0 0 0)
(-0.0370015602846 0.000792519240172 0)
(-0.0145838144802 0.000188882046483 0)
(-0.00882570699616 0.000114306006934 0)
(-0.0198056997604 0.00042420908752 0)
(0 0 0)
(-0.0105306565347 0.000157239074745 0)
(0 0 0)
(0 0 0)
(0 0 0)
(0 0 0)
(0 0 0)
(0 0 0)
(0 0 0)
(0 0 0)
(0 0 0)
(0 0 0)
(0 0 0)
(0 0 0)
(0 0 0)
(0 0 0)
(0 0 0)
(0 0 0)
(0 0 0)
(0 0 0)
(0 0 0)
(0 0 0)
(0 0 0)
(0 0 0)
(0 0 0)
(0 0 0)
(0 0 0)
(0 0 0)
(0 0 0)
(0 0 0)
(0 0 0)
(0 0 0)
(0 0 0)
(0 0 0)
(0 0 0)
(0 0 0)
(0 0 0)
(0 0 0)
(-0.0150636028749 0.000289175611574 0)
(0 0 0)
(0 0 0)
(0 0 0)
(0 0 0)
(0 0 0)
(0 0 0)
(0 0 0)
(-0.0033610692496 6.45223632002e-05 0)
(0 0 0)
(0 0 0)
(0 0 0)
(0 0 0)
(0 0 0)
(0 0 0)
(0 0 0)
(0 0 0)
(0 0 0)
(0 0 0)
(0 0 0)
(0 0 0)
(0 0 0)
(0 0 0)
(0 0 0)
(0 0 0)
(0 0 0)
(0 0 0)
(0 0 0)
(0 0 0)
(0 0 0)
(0 0 0)
(0 0 0)
(0 0 0)
(0 0 0)
(0 0 0)
(0 0 0)
(-0.322715245641 0.00865897970778 0)
(-0.00773399071241 0.000148469228295 0)
(0 0 0)
(0 0 0)
(0 0 0)
(0 0 0)
(0 0 0)
(0 0 0)
(-0.0708543646357 0.00191716571811 0)
(0 0 0)
(0 0 0)
(0 0 0)
(0 0 0)
(0 0 0)
(0 0 0)
(0 0 0)
(0 0 0)
(0 0 0)
(0 0 0)
(0 0 0)
(0 0 0)
(0 0 0)
(0 0 0)
(0 0 0)
(0 0 0)
(0 0 0)
(0 0 0)
(0 0 0)
(0 0 0)
(0 0 0)
(0 0 0)
(0 0 0)
(0 0 0)
(0 0 0)
(0 0 0)
(0 0 0)
(-1.52434501027 0.052556387296 0)
(-0.0433805928164 0.00154517852948 0)
(0 0 0)
(0 0 0)
(0 0 0)
(0 0 0)
(0 0 0)
(0 0 0)
(-0.33438208844 0.0114005496809 0)
(-0.00658556701941 0.000252778025022 0)
(0 0 0)
(0 0 0)
(0 0 0)
(0 0 0)
(0 0 0)
(0 0 0)
(0 0 0)
(0 0 0)
(0 0 0)
(0 0 0)
(0 0 0)
(0 0 0)
(0 0 0)
(0 0 0)
(0 0 0)
(0 0 0)
(0 0 0)
(0 0 0)
(0 0 0)
(0 0 0)
(0 0 0)
(0 0 0)
(0 0 0)
(0 0 0)
(0 0 0)
(0 0 0)
(0 0 0)
(0 0 0)
(0 0 0)
(0 0 0)
(0 0 0)
(0 0 0)
(0 0 0)
(-2.61160896033 0.0700142774599 0)
(-0.0788585749561 0.00211410905344 0)
(0 0 0)
(0 0 0)
(0 0 0)
(0 0 0)
(0 0 0)
(0 0 0)
(-2.61132326976 0.0700066184193 0)
(-0.582662834652 0.0156205304816 0)
(-0.0163583308566 0.000447960262787 0)
(0 0 0)
(0 0 0)
(0 0 0)
(0 0 0)
(0 0 0)
(0 0 0)
(-0.0478275811104 0.00128220326433 0)
(-0.0788541539925 0.00211399053241 0)
(-0.0163582218212 0.000447957276937 0)
(0 0 0)
(0 0 0)
(0 0 0)
(0 0 0)
(0 0 0)
(0 0 0)
(0 0 0)
(0 0 0)
(0 0 0)
(0 0 0)
(0 0 0)
(0 0 0)
(0 0 0)
(0 0 0)
(0 0 0)
(0 0 0)
(0 0 0)
(0 0 0)
(0 0 0)
(0 0 0)
(0 0 0)
(0 0 0)
(0 0 0)
(0 0 0)
(0 0 0)
(0 0 0)
(-0.0339139211035 0.000450674613014 0)
(-0.00101444573811 1.34472213124e-05 0)
(0 0 0)
(0 0 0)
(0 0 0)
(0 0 0)
(0 0 0)
(0 0 0)
(-0.0244000118362 0.000324246372404 0)
(-0.038639958779 0.000513477884685 0)
(-0.00828397358447 0.000109810137646 0)
(-0.000194815047991 9.13791313851e-07 0)
(0 0 0)
(0 0 0)
(0 0 0)
(0 0 0)
(0 0 0)
(0 0 0)
(-0.000719547127708 7.35246993217e-06 0)
(-0.00119570346638 1.58499252669e-05 0)
(-0.000215750307987 1.01198936854e-06 0)
(0 0 0)
(0 0 0)
(0 0 0)
(0 0 0)
(0 0 0)
(0 0 0)
(0 0 0)
(0 0 0)
(0 0 0)
(0 0 0)
(0 0 0)
(0 0 0)
(0 0 0)
(0 0 0)
(0 0 0)
(0 0 0)
(0 0 0)
(0 0 0)
(0 0 0)
(0 0 0)
(0 0 0)
(0 0 0)
(0 0 0)
(0 0 0)
(0 0 0)
(0 0 0)
(-0.000202767377937 7.70691139416e-07 0)
(-0.000200743409931 7.62998313161e-07 0)
(-2.59500803788e-05 5.53487733029e-08 0)
(0 0 0)
(0 0 0)
(0 0 0)
(0 0 0)
(0 0 0)
(0 0 0)
(0 0 0)
(-2.61620436667e-05 5.58008685487e-08 0)
(-2.60126655574e-05 5.54822608609e-08 0)
(-2.67135471682e-06 -3.36592117014e-09 0)
(0 0 0)
(0 0 0)
(0 0 0)
(0 0 0)
(0 0 0)
(0 0 0)
(0 0 0)
(0 0 0)
(0 0 0)
(0 0 0)
(0 0 0)
(0 0 0)
(0 0 0)
(0 0 0)
(0 0 0)
(0 0 0)
(0 0 0)
(0 0 0)
(0 0 0)
(0 0 0)
(0 0 0)
(0 0 0)
(0 0 0)
(0 0 0)
(0 0 0)
(0 0 0)
(0 0 0)
(0 0 0)
(0 0 0)
(0 0 0)
(0 0 0)
(0 0 0)
(0 0 0)
(0 0 0)
(0 0 0)
(0 0 0)
(-0.00336113090964 6.45235468864e-05 0)
(-0.0091363505168 0.000175390294752 0)
(-0.00203859043628 3.91347701513e-05 0)
(-0.0868666451129 0.00201105895493 0)
(-0.0177961929998 0.000341633076572 0)
(-0.0526853735504 0.00121972469565 0)
(-0.0107936363868 0.000207205170582 0)
(0 0 0)
(0 0 0)
(0 0 0)
(-0.00240838822031 4.62337690592e-05 0)
(0 0 0)
(0 0 0)
(0 0 0)
(0 0 0)
(0 0 0)
(0 0 0)
(-0.0177951654866 0.000341613351426 0)
(-0.00397063131694 7.62241111205e-05 0)
(-0.00397062573073 7.62240038823e-05 0)
(0 0 0)
(0 0 0)
(0 0 0)
(0 0 0)
(0 0 0)
(0 0 0)
(0 0 0)
(0 0 0)
(-0.07085583283 0.00191720544427 0)
(-0.195736843996 0.0052519407841 0)
(-0.0429764148689 0.00116284874895 0)
(-0.80539419706 0.0250108916351 0)
(-0.177492075103 0.00558330236025 0)
(-0.488493181797 0.0151697765877 0)
(-0.107652962571 0.00338639930635 0)
(0 0 0)
(-0.00469090879795 9.00512600971e-05 0)
(0 0 0)
(-0.0228704958687 0.000740771776201 0)
(0 0 0)
(-0.0122254612953 0.000383959924799 0)
(0 0 0)
(-0.0149644839102 0.000394228856839 0)
(-0.0149640223399 0.000394216697091 0)
(-0.00284506520436 5.46166463145e-05 0)
(-0.177490448737 0.00558325120026 0)
(-0.0377076807134 0.00122134586757 0)
(-0.0377064311037 0.0012213053929 0)
(-0.0074150866106 0.000232882508776 0)
(0 0 0)
(0 0 0)
(0 0 0)
(-0.00336116716071 6.45242427973e-05 0)
(0 0 0)
(0 0 0)
(0 0 0)
(-0.334381420808 0.0114005269184 0)
(-0.908953566197 0.0309902074523 0)
(-0.202808853821 0.00691464194301 0)
(-2.25060166395 0.0741337642442 0)
(-0.496423576318 0.0162148595075 0)
(-1.34948505978 0.0440787095854 0)
(-0.301100293256 0.00983494577154 0)
(0 0 0)
(-0.0263114510099 0.000937190723789 0)
(0 0 0)
(-0.0671804283585 0.00219433818105 0)
(0 0 0)
(-0.0407476549494 0.00133095511935 0)
(0 0 0)
(-0.0746094422519 0.0025437626071 0)
(-0.0746068298385 0.00254367353849 0)
(-0.0140635511804 0.000544008237677 0)
(-0.496416040057 0.0162146133479 0)
(-0.110764012555 0.00361792426416 0)
(-0.110759238216 0.00361776831825 0)
(-0.0247137010538 0.000807232391077 0)
(0 0 0)
(0 0 0)
(0 0 0)
(-0.0134063190212 0.000491618796011 0)
(0 0 0)
(0 0 0)
(0 0 0)
(-7.28898074364 0.201113709734 0)
(-4.33130354061 0.116889307334 0)
(-4.46775153681 0.0798183785471 0)
(-2.1091367299 0.0376806705851 0)
(-0.582713777463 0.0156218962007 0)
(-1.58394262804 0.0424637073637 0)
(-0.353420985341 0.00947481621624 0)
(-2.72001298477 0.0485942479752 0)
(-0.288886412926 0.00516108491576 0)
(-1.28299038817 0.0229211968551 0)
(-0.136360330555 0.00243613826627 0)
(0 0 0)
(-0.047829425552 0.00128225271172 0)
(0 0 0)
(-0.104667491042 0.00186775741567 0)
(0 0 0)
(-0.0494516959677 0.000882449468712 0)
(0 0 0)
(0 0 0)
(0 0 0)
(0 0 0)
(0 0 0)
(0 0 0)
(0 0 0)
(0 0 0)
(0 0 0)
(0 0 0)
(0 0 0)
(0 0 0)
(0 0 0)
(0 0 0)
(0 0 0)
(0 0 0)
(0 0 0)
(0 0 0)
(0 0 0)
(0 0 0)
(0 0 0)
(0 0 0)
(0 0 0)
(0 0 0)
(0 0 0)
(0 0 0)
(0 0 0)
(0 0 0)
(0 0 0)
(0 0 0)
(0 0 0)
(0 0 0)
(0 0 0)
(0 0 0)
(0 0 0)
(0 0 0)
(0 0 0)
(0 0 0)
(0 0 0)
(0 0 0)
(0 0 0)
(0 0 0)
(0 0 0)
(-0.353404672998 0.00947437890081 0)
(-0.582665367465 0.0156205983835 0)
(-1.30221338637 0.0232646243118 0)
(-2.70980986074 0.048411964603 0)
(-0.136431967915 0.00243741809973 0)
(-0.286590226222 0.00512006251377 0)
(-1.5838455152 0.0424611038787 0)
(-0.582664647354 0.0156205790781 0)
(-0.353403543788 0.00947434862796 0)
(-2.70427435054 0.0483130702387 0)
(-1.27869359756 0.02284443277 0)
(-0.286303776536 0.00511494496208 0)
(-0.134785057144 0.00240799530255 0)
(-0.130009274021 0.00348540134527 0)
(-0.130009706333 0.00348541293508 0)
(-0.0290089690844 0.000777697596061 0)
(-0.777366723702 0.0138880040466 0)
(-0.0812157128066 0.00144926804258 0)
(-0.0805182255654 0.00143682160907 0)
(-0.00606718976705 3.37661382551e-05 0)
(0 0 0)
(0 0 0)
(0 0 0)
(-0.0299292425769 0.000534077622497 0)
(0 0 0)
(0 0 0)
(0 0 0)
(0 0 0)
(0 0 0)
(0 0 0)
(0 0 0)
(0 0 0)
(0 0 0)
(0 0 0)
(0 0 0)
(0 0 0)
(0 0 0)
(0 0 0)
(0 0 0)
(0 0 0)
(0 0 0)
(0 0 0)
(0 0 0)
(0 0 0)
(0 0 0)
(0 0 0)
(0 0 0)
(0 0 0)
(0 0 0)
(0 0 0)
(0 0 0)
(0 0 0)
(0 0 0)
(0 0 0)
(0 0 0)
(0 0 0)
(0 0 0)
(0 0 0)
(0 0 0)
(0 0 0)
(0 0 0)
(0 0 0)
(0 0 0)
(0 0 0)
(0 0 0)
(0 0 0)
(0 0 0)
(0 0 0)
(0 0 0)
(-0.078854319773 0.0021139949768 0)
(0 0 0)
(0 0 0)
(-0.0493736427209 0.000881056633848 0)
(-0.103832124359 0.00185285056828 0)
(0 0 0)
(0 0 0)
(-0.0478274184788 0.00128219890436 0)
(0 0 0)
(0 0 0)
(-0.10376276018 0.001851612787 0)
(-0.0488288727459 0.00087133539041 0)
(0 0 0)
(0 0 0)
(0 0 0)
(0 0 0)
(0 0 0)
(-0.0296217486501 0.000528590493148 0)
(0 0 0)
(0 0 0)
(0 0 0)
(0 0 0)
(0 0 0)
(0 0 0)
(0 0 0)
(0 0 0)
(0 0 0)
(0 0 0)
(0 0 0)
(0 0 0)
(0 0 0)
(0 0 0)
(0 0 0)
(0 0 0)
(0 0 0)
(0 0 0)
(0 0 0)
(0 0 0)
(0 0 0)
(0 0 0)
(0 0 0)
(0 0 0)
(0 0 0)
(0 0 0)
(0 0 0)
(0 0 0)
(0 0 0)
(0 0 0)
(0 0 0)
(0 0 0)
(0 0 0)
(0 0 0)
(0 0 0)
(0 0 0)
(0 0 0)
(0 0 0)
(0 0 0)
(0 0 0)
(0 0 0)
(0 0 0)
(0 0 0)
(0 0 0)
(0 0 0)
(0 0 0)
(0 0 0)
(0 0 0)
(0 0 0)
(0 0 0)
(0 0 0)
(0 0 0)
(0 0 0)
(0 0 0)
(0 0 0)
(0 0 0)
(0 0 0)
(0 0 0)
(0 0 0)
(0 0 0)
(0 0 0)
(0 0 0)
(0 0 0)
(0 0 0)
(0 0 0)
(0 0 0)
(0 0 0)
(0 0 0)
(0 0 0)
(0 0 0)
(0 0 0)
(0 0 0)
(0 0 0)
(0 0 0)
(0 0 0)
(0 0 0)
(0 0 0)
(0 0 0)
(0 0 0)
(0 0 0)
(0 0 0)
(0 0 0)
(0 0 0)
(0 0 0)
(0 0 0)
(0 0 0)
(0 0 0)
(0 0 0)
(0 0 0)
(0 0 0)
(0 0 0)
(0 0 0)
(0 0 0)
(0 0 0)
(0 0 0)
(0 0 0)
(0 0 0)
(0 0 0)
(0 0 0)
(0 0 0)
(0 0 0)
(0 0 0)
(0 0 0)
(0 0 0)
(0 0 0)
(0 0 0)
(0 0 0)
(0 0 0)
(0 0 0)
(0 0 0)
(0 0 0)
(0 0 0)
(0 0 0)
(0 0 0)
(0 0 0)
(0 0 0)
(0 0 0)
(0 0 0)
(0 0 0)
(0 0 0)
(0 0 0)
(0 0 0)
(0 0 0)
(0 0 0)
(0 0 0)
(0 0 0)
(0 0 0)
(0 0 0)
(0 0 0)
(0 0 0)
(0 0 0)
(0 0 0)
(0 0 0)
(0 0 0)
(0 0 0)
(0 0 0)
(0 0 0)
(0 0 0)
(0 0 0)
(0 0 0)
(0 0 0)
(0 0 0)
(0 0 0)
(0 0 0)
(0 0 0)
(0 0 0)
(0 0 0)
(0 0 0)
(0 0 0)
(0 0 0)
(0 0 0)
(0 0 0)
(0 0 0)
(0 0 0)
(0 0 0)
(0 0 0)
(0 0 0)
(0 0 0)
(0 0 0)
(0 0 0)
(0 0 0)
(0 0 0)
(0 0 0)
(0 0 0)
(0 0 0)
(0 0 0)
(0 0 0)
(0 0 0)
(0 0 0)
(0 0 0)
(0 0 0)
(0 0 0)
(0 0 0)
(-0.00200386097894 1.72890293312e-05 0)
(-0.00292938402925 2.52743114099e-05 0)
(-0.00119060155528 1.02556964512e-05 0)
(-0.00173811581473 1.49962176107e-05 0)
(-0.0991848638604 0.00131804576654 0)
(-0.0609784483277 0.000810329142372 0)
(-0.00264661425508 2.28346137608e-05 0)
(-0.00157072005837 1.3551950682e-05 0)
(-0.00160318090583 1.38320182864e-05 0)
(-0.000957490306839 8.24770461484e-06 0)
(-0.00730827650274 9.68765581561e-05 0)
(-0.0215181634211 0.000285950124817 0)
(-0.00455761902656 6.0414578528e-05 0)
(-0.000571863020008 4.9259582426e-06 0)
(-0.000126697854317 1.0913598501e-06 0)
(-0.000349536315863 3.01086315423e-06 0)
(-7.72562257469e-05 6.65475697317e-07 0)
(0 0 0)
(-0.000584708053509 5.97465852752e-06 0)
(0 0 0)
(-1.50796899692e-05 5.39985305953e-08 0)
(0 0 0)
(-9.15237436882e-06 3.27735363516e-08 0)
(0 0 0)
(0 0 0)
(0 0 0)
(0 0 0)
(0 0 0)
(0 0 0)
(0 0 0)
(0 0 0)
(0 0 0)
(0 0 0)
(0 0 0)
(0 0 0)
(0 0 0)
(0 0 0)
(0 0 0)
(0 0 0)
(0 0 0)
(0 0 0)
(0 0 0)
(0 0 0)
(0 0 0)
(0 0 0)
(0 0 0)
(0 0 0)
(0 0 0)
(0 0 0)
(0 0 0)
(0 0 0)
(0 0 0)
(0 0 0)
(0 0 0)
(0 0 0)
(0 0 0)
(0 0 0)
(0 0 0)
(0 0 0)
(0 0 0)
(0 0 0)
(0 0 0)
(0 0 0)
(0 0 0)
(0 0 0)
(0 0 0)
(-0.0394508684122 0.000524253883839 0)
(-0.005512930971 7.30779380914e-05 0)
(-0.0088960069954 0.000117923088805 0)
(-0.000429316128523 3.69807672115e-06 0)
(-0.000645475960644 5.56005112673e-06 0)
(-9.78466426987e-05 8.42839035308e-07 0)
(-0.000149263121659 1.28573430826e-06 0)
(-0.0229301958945 0.000304714312732 0)
(-0.00871466750055 0.000115519300975 0)
(-0.00523576006327 6.94038346894e-05 0)
(-0.000615565270168 5.3024040904e-06 0)
(-0.000357586107976 3.08020308079e-06 0)
(-0.000143287343139 1.2342596816e-06 0)
(-8.364777907e-05 7.20531757375e-07 0)
(-0.00183533128745 2.4328660545e-05 0)
(-0.00194841239509 2.58276334556e-05 0)
(-0.00041511372782 4.24171132743e-06 0)
(-0.000129056621812 1.11167798535e-06 0)
(-2.830267982e-05 2.02068152797e-07 0)
(-2.89772911147e-05 2.06884568028e-07 0)
(-3.78720404089e-06 -4.77189726118e-09 0)
(0 0 0)
(0 0 0)
(0 0 0)
(0 0 0)
(0 0 0)
(0 0 0)
(0 0 0)
(0 0 0)
(0 0 0)
(0 0 0)
(0 0 0)
(0 0 0)
(0 0 0)
(0 0 0)
(0 0 0)
(0 0 0)
(0 0 0)
(0 0 0)
(0 0 0)
(0 0 0)
(0 0 0)
(0 0 0)
(0 0 0)
(0 0 0)
(0 0 0)
(0 0 0)
(0 0 0)
(0 0 0)
(0 0 0)
(0 0 0)
(0 0 0)
(0 0 0)
(0 0 0)
(0 0 0)
(0 0 0)
(0 0 0)
(0 0 0)
(0 0 0)
(0 0 0)
(0 0 0)
(0 0 0)
(0 0 0)
(0 0 0)
(0 0 0)
(0 0 0)
(0 0 0)
(0 0 0)
(0 0 0)
(0 0 0)
(-0.00121915876795 1.61608424696e-05 0)
(0 0 0)
(0 0 0)
(-1.22199826227e-05 4.375826737e-08 0)
(-1.91130719249e-05 6.84415794502e-08 0)
(0 0 0)
(0 0 0)
(-0.00069003098635 7.05086836433e-06 0)
(0 0 0)
(0 0 0)
(-1.79130693692e-05 6.41445166557e-08 0)
(-1.03007755118e-05 3.68858207807e-08 0)
(0 0 0)
(0 0 0)
(0 0 0)
(0 0 0)
(0 0 0)
(0 0 0)
(0 0 0)
(0 0 0)
(0 0 0)
(0 0 0)
(0 0 0)
(0 0 0)
(0 0 0)
(0 0 0)
(0 0 0)
(0 0 0)
(0 0 0)
(0 0 0)
(0 0 0)
(0 0 0)
(0 0 0)
(0 0 0)
(0 0 0)
(0 0 0)
(0 0 0)
(0 0 0)
(0 0 0)
(0 0 0)
(0 0 0)
(0 0 0)
(0 0 0)
(0 0 0)
(0 0 0)
(0 0 0)
(0 0 0)
(0 0 0)
(0 0 0)
(0 0 0)
(0 0 0)
(0 0 0)
(0 0 0)
(0 0 0)
(0 0 0)
(0 0 0)
(0 0 0)
(0 0 0)
(0 0 0)
(0 0 0)
(0 0 0)
(0 0 0)
(0 0 0)
(0 0 0)
(0 0 0)
(0 0 0)
(0 0 0)
(0 0 0)
(0 0 0)
(0 0 0)
(0 0 0)
(0 0 0)
(0 0 0)
(0 0 0)
(0 0 0)
(0 0 0)
(0 0 0)
(0 0 0)
(0 0 0)
(0 0 0)
(0 0 0)
(0 0 0)
(0 0 0)
(0 0 0)
(0 0 0)
(0 0 0)
(0 0 0)
(0 0 0)
(0 0 0)
(0 0 0)
(0 0 0)
(0 0 0)
(0 0 0)
(0 0 0)
(0 0 0)
(0 0 0)
(0 0 0)
(0 0 0)
(0 0 0)
(0 0 0)
(0 0 0)
(0 0 0)
(0 0 0)
(0 0 0)
(0 0 0)
(0 0 0)
(0 0 0)
(0 0 0)
(0 0 0)
(0 0 0)
(0 0 0)
(0 0 0)
(0 0 0)
(0 0 0)
(0 0 0)
(0 0 0)
(0 0 0)
(0 0 0)
(0 0 0)
(0 0 0)
(0 0 0)
(0 0 0)
(0 0 0)
(0 0 0)
(0 0 0)
(0 0 0)
(0 0 0)
(0 0 0)
(0 0 0)
(0 0 0)
(0 0 0)
(0 0 0)
(0 0 0)
(0 0 0)
(0 0 0)
(0 0 0)
(0 0 0)
(0 0 0)
(0 0 0)
(0 0 0)
(0 0 0)
(0 0 0)
(0 0 0)
(0 0 0)
(0 0 0)
(0 0 0)
(0 0 0)
(0 0 0)
(0 0 0)
(0 0 0)
(0 0 0)
(0 0 0)
(0 0 0)
(0 0 0)
(0 0 0)
(0 0 0)
(0 0 0)
(0 0 0)
(0 0 0)
(0 0 0)
(0 0 0)
(0 0 0)
(0 0 0)
(0 0 0)
(0 0 0)
(0 0 0)
(0 0 0)
(0 0 0)
(0 0 0)
(0 0 0)
(0 0 0)
(0 0 0)
(0 0 0)
(0 0 0)
(0 0 0)
(0 0 0)
(0 0 0)
(0 0 0)
(0 0 0)
(0 0 0)
(0 0 0)
(0 0 0)
(0 0 0)
(0 0 0)
(0 0 0)
(0 0 0)
(0 0 0)
(0 0 0)
(0 0 0)
(0 0 0)
(0 0 0)
(0 0 0)
(0 0 0)
(0 0 0)
(0 0 0)
(0 0 0)
(-7.27967136778 0.156038458208 0)
(-5.65646346051 0.120787761345 0)
(-6.48141324765 0.115793345234 0)
(-3.94059611215 0.0704005112167 0)
(-4.99189572729 0.106596624194 0)
(-5.71256830151 0.102057586553 0)
(-8.25740463191 0.177298879954 0)
(-5.65634898463 0.120785316834 0)
(-2.67186286509 0.0570547898606 0)
(-3.06679535609 0.0547896700705 0)
(-3.05981657953 0.0546649911073 0)
(-3.88759435511 0.0830154428556 0)
(-3.88750632456 0.0830135630568 0)
(-4.45022693175 0.0795052936431 0)
(-1.62071726648 0.034608693534 0)
(-3.43098090734 0.0732649483034 0)
(-1.46255825315 0.0261292570402 0)
(-2.4017568568 0.0429084599702 0)
(-3.02778527031 0.0646551342879 0)
(-1.29027170078 0.02305128076 0)
(-1.83654663878 0.039217500237 0)
(-0.765580980348 0.0163481676121 0)
(-0.361659255786 0.00772284876954 0)
(-0.692592846031 0.0123734808232 0)
(-0.255066725425 0.00455688107921 0)
(-0.319145849854 0.00681502020041 0)
(-0.611103486796 0.01091763699 0)
(-0.867567007243 0.0185259707506 0)
(-1.2622044113 0.0269530328029 0)
(-1.62059448954 0.034606071763 0)
(-1.86845764375 0.0333808311137 0)
(-0.68881568929 0.0123060002294 0)
(-2.35799510405 0.0503524776334 0)
(-0.867442540639 0.0185233128987 0)
(-1.00357371033 0.0179292929902 0)
(-0.596232574626 0.0127319125161 0)
(-0.170806240398 0.00364738560505 0)
(-0.198720208694 0.00355022536768 0)
(-0.326388618698 0.00583107858753 0)
(-0.248547360468 0.00530746454364 0)
(-0.409747288533 0.00874971756548 0)
(-0.475657714885 0.00849783772278 0)
(-0.0370087813246 0.000792673904276 0)
(-0.133045448337 0.00284104405057 0)
(-0.033991268825 0.00060656316287 0)
(-0.0924260850267 0.00164931349736 0)
(-0.117410267822 0.00250717139925 0)
(-0.0300152630691 0.00053561263027 0)
(-0.0419368066779 0.00089822499127 0)
(-0.00929520039289 0.000138791793706 0)
(0 0 0)
(-0.00886945426828 0.000114872599048 0)
(0 0 0)
(0 0 0)
(-0.00613652454418 3.41520117419e-05 0)
(-0.0105327460842 0.000157270274969 0)
(-0.0288222778304 0.00061733098687 0)
(-0.0628348630893 0.00134177167411 0)
(-0.0720510591241 0.00128572777131 0)
(-0.014629578801 0.000189474762373 0)
(-0.0914366668328 0.001952532774 0)
(-0.0198065489907 0.000424227276791 0)
(-0.0234021999959 0.000417604665501 0)
(-0.00534466509587 3.28939530919e-05 0)
(0 0 0)
(0 0 0)
(0 0 0)
(0 0 0)
(0 0 0)
(-0.00478453810076 2.66277108842e-05 0)
(0 0 0)
(0 0 0)
(0 0 0)
(0 0 0)
(0 0 0)
(0 0 0)
(0 0 0)
(0 0 0)
(0 0 0)
(0 0 0)
(0 0 0)
(0 0 0)
(0 0 0)
(0 0 0)
(0 0 0)
(0 0 0)
(0 0 0)
(0 0 0)
(0 0 0)
(0 0 0)
(0 0 0)
(0 0 0)
(0 0 0)
(0 0 0)
(0 0 0)
(0 0 0)
(0 0 0)
(0 0 0)
(0 0 0)
(0 0 0)
(0 0 0)
(0 0 0)
(0 0 0)
(0 0 0)
(0 0 0)
(0 0 0)
(0 0 0)
(0 0 0)
(0 0 0)
(0 0 0)
(0 0 0)
(0 0 0)
(0 0 0)
(0 0 0)
(0 0 0)
(0 0 0)
(0 0 0)
(0 0 0)
(0 0 0)
(0 0 0)
(0 0 0)
(0 0 0)
(0 0 0)
(0 0 0)
(0 0 0)
(0 0 0)
(0 0 0)
(0 0 0)
(0 0 0)
(0 0 0)
(0 0 0)
(0 0 0)
(0 0 0)
(0 0 0)
(0 0 0)
(0 0 0)
(0 0 0)
(0 0 0)
(0 0 0)
(0 0 0)
(0 0 0)
(0 0 0)
(0 0 0)
(0 0 0)
(0 0 0)
(0 0 0)
(0 0 0)
(0 0 0)
(0 0 0)
(0 0 0)
(0 0 0)
(0 0 0)
(0 0 0)
(0 0 0)
(0 0 0)
(0 0 0)
(0 0 0)
(0 0 0)
(0 0 0)
(0 0 0)
(0 0 0)
(0 0 0)
(0 0 0)
(0 0 0)
(0 0 0)
(0 0 0)
(0 0 0)
(0 0 0)
(0 0 0)
(0 0 0)
(0 0 0)
(0 0 0)
(0 0 0)
(0 0 0)
(0 0 0)
(0 0 0)
(0 0 0)
(0 0 0)
(0 0 0)
(0 0 0)
(0 0 0)
(0 0 0)
(0 0 0)
(0 0 0)
(0 0 0)
(0 0 0)
(0 0 0)
(0 0 0)
(0 0 0)
(0 0 0)
(0 0 0)
(0 0 0)
(0 0 0)
(0 0 0)
(0 0 0)
(0 0 0)
(0 0 0)
(0 0 0)
(0 0 0)
(0 0 0)
(0 0 0)
(0 0 0)
(0 0 0)
(0 0 0)
(0 0 0)
(0 0 0)
(0 0 0)
(0 0 0)
(0 0 0)
(0 0 0)
(0 0 0)
(0 0 0)
(0 0 0)
(0 0 0)
(0 0 0)
(0 0 0)
(0 0 0)
(0 0 0)
(0 0 0)
(0 0 0)
(0 0 0)
(0 0 0)
(0 0 0)
(0 0 0)
(0 0 0)
(0 0 0)
(0 0 0)
(0 0 0)
(0 0 0)
(0 0 0)
(0 0 0)
(0 0 0)
(0 0 0)
(0 0 0)
(0 0 0)
(0 0 0)
(0 0 0)
(0 0 0)
(-1.26210044434 0.0269508126991 0)
(-1.62062434059 0.0346067092004 0)
(-1.88156190009 0.0336149445116 0)
(-0.694345131946 0.0124047861944 0)
(-2.35793374705 0.05035116742 0)
(-1.00734719436 0.0179967079695 0)
(-0.867414688058 0.0185227181364 0)
(-1.62055939216 0.0346053222958 0)
(-3.43048208779 0.0732542965424 0)
(-2.39934620793 0.0428653926505 0)
(-1.45206107826 0.025941720318 0)
(-3.02748065347 0.064648629519 0)
(-1.83621326567 0.0392103814089 0)
(-1.28869940347 0.0230231909658 0)
(-0.59614700676 0.0127300853053 0)
(-0.170802765357 0.00364731139924 0)
(-0.327348362557 0.00584822484063 0)
(-0.198008932536 0.00353751810115 0)
(-0.2485168869 0.005306813813 0)
(-0.475627436438 0.00849729678479 0)
(-0.409724939411 0.00874924032376 0)
(-0.765452436909 0.0163454227037 0)
(-0.361580767742 0.00772117274085 0)
(-0.68689960916 0.0122717686013 0)
(-0.253212916801 0.00452376195939 0)
(-0.867332657699 0.0185209664654 0)
(-0.319100905441 0.00681406046028 0)
(-0.60933443136 0.0108860320238 0)
(-1.62044462929 0.0346028716567 0)
(-3.43043764682 0.0732533475526 0)
(-2.38200019928 0.0425554984512 0)
(-1.44723326746 0.0258554693197 0)
(-3.02739798732 0.0646468642713 0)
(-1.83617339304 0.0392095299713 0)
(-1.27742253135 0.0228217246039 0)
(-1.26200202982 0.0269487111617 0)
(-1.62049767609 0.0346040044147 0)
(-1.85655282968 0.0331681462881 0)
(-0.684340572493 0.0122260502672 0)
(-2.35778442447 0.050347978795 0)
(-0.867360653178 0.018521564279 0)
(-0.995344718145 0.017782278366 0)
(-0.76541786304 0.0163446844155 0)
(-0.361572807226 0.0077210027525 0)
(-0.684309105915 0.0122254881027 0)
(-0.251844148024 0.00449930829327 0)
(-0.867330570935 0.0185209219047 0)
(-0.319084272238 0.00681370527592 0)
(-0.603979781932 0.0107903688179 0)
(-0.596098854685 0.012729057069 0)
(-0.170787894844 0.00364699385526 0)
(-0.323300209869 0.0057759027831 0)
(-0.196019138177 0.00350196953537 0)
(-0.409685645819 0.00874840125088 0)
(-0.24849941298 0.00530644067603 0)
(-0.470371161635 0.00840339108559 0)
(-0.281584458561 0.00601293663726 0)
(-0.98287758253 0.0209883054489 0)
(-0.417060959017 0.00745098048308 0)
(-0.415630464649 0.00742542406169 0)
(-0.526093539627 0.0112341680191 0)
(-0.526078092482 0.0112338381618 0)
(-0.222853754928 0.00398138196023 0)
(-0.133007266019 0.00284022870777 0)
(-0.10358285081 0.00221190161491 0)
(-0.197493165058 0.00352830368456 0)
(-0.0433399326062 0.00077338703464 0)
(-0.248502659977 0.0053065100122 0)
(-0.0538304160046 0.00115296868732 0)
(-0.103806301486 0.00185238976749 0)
(-0.133003618513 0.00284015081916 0)
(-0.103585940722 0.0022119675967 0)
(-0.196212953626 0.003505432135 0)
(-0.0431031470202 0.000769161672689 0)
(-0.248487083683 0.00530617739701 0)
(-0.0538326729404 0.00115301702758 0)
(-0.103514235052 0.00184717793673 0)
(-0.0628253030993 0.00134156753069 0)
(-0.00929229515524 0.000138748413991 0)
(-0.0204290540332 0.000364549840509 0)
(-0.0203740250382 0.000363567865948 0)
(-0.0254269133014 0.000544607250466 0)
(-0.0254281016893 0.000544632703996 0)
(-0.0489452406008 0.000873411937021 0)
(0 0 0)
(-0.0369961126566 0.000792402559957 0)
(-0.00886213968083 0.000114777864283 0)
(-0.0145464609764 0.000188398263159 0)
(-0.0105292746249 0.000157218440684 0)
(-0.0198015955473 0.000424121181286 0)
(0 0 0)
(0 0 0)
(0 0 0)
(0 0 0)
(0 0 0)
(0 0 0)
(0 0 0)
(0 0 0)
(0 0 0)
(0 0 0)
(-0.00537220429476 2.98982889799e-05 0)
(0 0 0)
(-0.0082001276497 0.000122440655071 0)
(0 0 0)
(0 0 0)
(0 0 0)
(0 0 0)
(0 0 0)
(0 0 0)
(0 0 0)
(0 0 0)
(0 0 0)
(0 0 0)
(0 0 0)
(0 0 0)
(0 0 0)
(0 0 0)
(0 0 0)
(0 0 0)
(0 0 0)
(0 0 0)
(0 0 0)
(0 0 0)
(0 0 0)
(0 0 0)
(0 0 0)
(0 0 0)
(0 0 0)
(0 0 0)
(0 0 0)
(0 0 0)
(0 0 0)
(0 0 0)
(0 0 0)
(0 0 0)
(0 0 0)
(0 0 0)
(0 0 0)
(0 0 0)
(0 0 0)
(0 0 0)
(0 0 0)
(0 0 0)
(0 0 0)
(0 0 0)
(0 0 0)
(0 0 0)
(0 0 0)
(0 0 0)
(0 0 0)
(0 0 0)
(0 0 0)
(0 0 0)
(0 0 0)
(0 0 0)
(0 0 0)
(0 0 0)
(0 0 0)
(0 0 0)
(0 0 0)
(0 0 0)
(0 0 0)
(0 0 0)
(0 0 0)
(0 0 0)
(0 0 0)
(0 0 0)
(0 0 0)
(0 0 0)
(0 0 0)
(0 0 0)
(0 0 0)
(0 0 0)
(0 0 0)
(0 0 0)
(0 0 0)
(0 0 0)
(0 0 0)
(0 0 0)
(0 0 0)
(0 0 0)
(0 0 0)
(0 0 0)
(0 0 0)
(0 0 0)
(0 0 0)
(0 0 0)
(0 0 0)
(0 0 0)
(0 0 0)
(0 0 0)
(0 0 0)
(0 0 0)
(0 0 0)
(0 0 0)
(0 0 0)
(0 0 0)
(0 0 0)
(0 0 0)
(0 0 0)
(0 0 0)
(0 0 0)
(0 0 0)
(0 0 0)
(0 0 0)
(0 0 0)
(0 0 0)
(0 0 0)
(0 0 0)
(0 0 0)
(0 0 0)
(0 0 0)
(0 0 0)
(0 0 0)
(0 0 0)
(0 0 0)
(0 0 0)
(0 0 0)
(0 0 0)
(0 0 0)
(0 0 0)
(0 0 0)
(0 0 0)
(0 0 0)
(0 0 0)
(0 0 0)
(0 0 0)
(0 0 0)
(0 0 0)
(0 0 0)
(0 0 0)
(0 0 0)
(0 0 0)
(0 0 0)
(0 0 0)
(0 0 0)
(0 0 0)
(0 0 0)
(0 0 0)
(0 0 0)
(0 0 0)
(0 0 0)
(0 0 0)
(0 0 0)
(0 0 0)
(0 0 0)
(0 0 0)
(0 0 0)
(0 0 0)
(0 0 0)
(0 0 0)
(0 0 0)
(0 0 0)
(0 0 0)
(0 0 0)
(0 0 0)
(0 0 0)
(0 0 0)
(0 0 0)
(0 0 0)
(0 0 0)
(0 0 0)
(0 0 0)
(0 0 0)
(0 0 0)
(0 0 0)
(0 0 0)
(0 0 0)
(0 0 0)
(0 0 0)
(0 0 0)
(0 0 0)
(0 0 0)
(0 0 0)
(0 0 0)
(0 0 0)
(0 0 0)
(0 0 0)
(0 0 0)
(0 0 0)
(-0.0288169980576 0.000617217901867 0)
(-0.0628321492825 0.00134171372365 0)
(-0.0716815973684 0.00127913484616 0)
(-0.0145552396044 0.000188511959423 0)
(-0.0914226117865 0.00195223264343 0)
(-0.0232641887725 0.0004151419 0)
(-0.019805680521 0.000424208675441 0)
(-0.0370017938318 0.000792524242411 0)
(-0.133015258664 0.00284039938222 0)
(-0.0917481259019 0.00163721553676 0)
(-0.0337190840369 0.000601706113644 0)
(-0.117389215622 0.00250672185191 0)
(-0.041928282811 0.000898042422523 0)
(-0.0298444058564 0.000532563738748 0)
(-0.00534355688324 3.28871325534e-05 0)
(0 0 0)
(0 0 0)
(0 0 0)
(0 0 0)
(-0.00475246891278 2.64492340809e-05 0)
(0 0 0)
(-0.00929335929416 0.00013876430324 0)
(0 0 0)
(-0.00879922475268 0.000113963022569 0)
(0 0 0)
(-0.0105306755817 0.000157239359147 0)
(0 0 0)
(-0.00609883385946 3.39422492456e-05 0)
(-0.0370002094224 0.000792490306683 0)
(-0.133010022879 0.0028402875776 0)
(-0.0912862166833 0.00162897291663 0)
(-0.0335986457609 0.000599556931687 0)
(-0.117381637936 0.00250656003847 0)
(-0.0419276996794 0.000898029932698 0)
(-0.029652168337 0.000529133322591 0)
(-0.0288152287412 0.0006171800057 0)
(-0.0628276303694 0.00134161722707 0)
(-0.0710228166381 0.00126737911779 0)
(-0.0144342748373 0.000186945286123 0)
(-0.0914166117099 0.00195210451818 0)
(-0.0198039295646 0.000424171172519 0)
(-0.0230901949667 0.000412037036993 0)
(-0.00929296542119 0.000138758422104 0)
(0 0 0)
(-0.00876979152456 0.000113581818573 0)
(0 0 0)
(-0.0105305474892 0.000157237446527 0)
(0 0 0)
(-0.00606445816565 3.37509358905e-05 0)
(-0.00534333283861 3.28857536618e-05 0)
(0 0 0)
(0 0 0)
(0 0 0)
(0 0 0)
(0 0 0)
(-0.0047237719281 2.62895248268e-05 0)
(0 0 0)