/*--------------------------------*- C++ -*----------------------------------*\
| =========                 |                                                 |
| \\      /  F ield         | OpenFOAM: The Open Source CFD Toolbox           |
|  \\    /   O peration     | Version:  v1906                                 |
|   \\  /    A nd           | Web:      www.OpenFOAM.com                      |
|    \\/     M anipulation  |                                                 |
\*---------------------------------------------------------------------------*/
FoamFile
{
    version     2.0;
    format      ascii;
    class       volScalarField;
    location    "5";
    object      p;
}
// * * * * * * * * * * * * * * * * * * * * * * * * * * * * * * * * * * * * * //

dimensions      [1 -1 -2 0 0 0 0];


internalField   nonuniform List<scalar> 
28582
(
17105.8250683
17103.9450914
12208.1940643
12206.4680557
7311.20668934
7309.561826
3638.8826284
3639.27162569
9.86172966826
18.1501689129
-27.1020541781
3639.24114525
615.088965819
619.645268442
3638.32727522
3639.17701637
621.736805662
1804.36047186
1805.18128617
17106.7163465
17102.2152165
17100.4953508
12208.6343304
12204.3916975
12202.1956577
7310.58372165
7306.64766817
3636.54172641
3635.97154211
21.2431777888
-27.0411865974
-27.0466560264
3636.22460335
3637.61637305
613.576756718
613.024970305
1800.19164743
3632.21196156
3636.5934318
3632.43086484
1802.71223334
626.644960647
1803.37346366
1797.81556846
11.7506470153
17.9101809332
-23.1875808341
-23.1756379845
14.6445346448
-23.1917794147
1801.7446141
1803.13466668
616.227416538
615.859151783
1802.62574017
616.945533001
1802.37648732
1803.73827878
1803.92059089
617.780770241
620.051608364
1804.54081696
618.343129312
1803.09095376
1805.53654246
1804.54298383
623.666230764
622.082516324
1805.18283622
624.068325818
1804.89562383
1803.82471624
626.929753325
627.219057164
1805.29727306
625.624402258
625.984917976
1804.69322551
1806.07507933
627.890505443
628.667633307
1806.13506384
627.067984903
1806.89904347
626.623998511
8.69390362053
-23.2316752867
8.9484134164
9.1347800588
-23.2415745284
-23.2227218783
21.3528205368
-23.1368889917
-23.1220575977
24.2949097226
-23.129878121
23.6909841166
-23.1068199406
1799.27084682
1798.96042083
613.320317655
613.523788494
1798.56738971
1799.87092788
613.262988088
1798.83521395
1798.19953315
613.12504272
612.960787666
1798.26441704
1798.61470695
612.9827444
612.926725012
613.354902846
1800.22139765
1799.42537768
612.975985456
1799.2369226
612.802827361
1802.28575266
627.607152341
627.947061499
1800.29297234
627.711893699
1800.06224271
627.928614588
1797.36635282
1794.27531703
627.267222272
626.762927781
1797.34242802
1794.14480385
627.318044592
1801.32231919
1804.20318999
628.584145255
629.46779197
629.302767087
1800.71361238
628.467018566
628.568919254
627.591325825
1793.87687629
1797.50326016
627.032029185
1793.99039631
627.776270386
7302.44379603
3628.25613798
26.1082767735
-27.2249361219
3637.64720348
614.190540513
3628.09855399
3625.01561767
625.716002085
626.11938476
623.014773965
3623.55678678
3624.09959522
624.442178494
630.801367012
9.86403658721
26.9833727333
28.7317897555
-23.1040301037
-23.1295374653
-23.1241654913
30.5029998629
32.637921823
1800.34865163
1800.58215129
613.37156015
615.398510813
1799.51458726
614.652870631
1801.27150336
1787.64285426
1791.11924595
624.851210794
625.832900108
1788.07207902
1790.86676571
624.801344564
1787.00867133
1789.95458057
625.908240358
624.684652699
1790.43867763
624.676794845
1786.31728168
1784.77314223
1783.69182291
623.349788589
623.357734113
1784.18692422
623.499602416
1784.13975422
1785.03211092
1784.30912547
624.564075705
626.616182575
1784.58233394
626.598992859
1784.82622295
1786.04562401
1787.40526781
630.786723967
629.002621939
1787.34967797
628.863442802
1786.01631912
3661.35665562
3654.74980746
3647.05800758
3645.86842537
11.2416055819
14.3629445702
13.8460546721
16.3560667335
14.8706066309
-27.065409854
-27.3282524002
-27.0506994036
-27.3245694419
-27.0748878501
-27.3485121149
3665.58650261
3664.46418386
630.030020827
629.867539821
3664.41092173
630.686813143
3662.52113881
3660.43304577
629.847982438
629.529960097
3658.73923646
3657.93617819
3654.32934325
630.587952228
628.63409737
629.076094381
625.641784698
3650.09007994
3645.76213394
627.789467889
624.609028937
624.777028163
622.52984185
3650.91142809
3649.11191899
628.382306289
624.369264269
622.463870035
3643.53821729
3645.66490272
3642.63230327
623.603743232
622.368425788
622.106718875
621.527892661
622.35867977
621.000550049
9.52288196698
9.59251548481
10.4348525924
-23.2717508919
-23.2856027313
-23.273645829
-23.2896820036
-23.3181544006
-23.2774787503
-23.3211406017
-23.2854727347
9.51919406433
9.97228417867
13.2361011889
12.5634592684
14.7918641202
-23.2558309018
-23.2712666544
-23.2413566909
-23.2636812172
14.4103212358
15.5325737353
15.272254949
-23.3128134486
-23.2758882461
-23.3000050457
-23.26478396
15.6980055782
15.579725204
-23.2268147684
-23.2410145953
-23.2360899464
16.1266002297
16.2372594024
16.247086769
-23.2859502978
-23.2633764799
-23.2867139736
-23.2737625585
1829.49900178
1830.10699781
629.391445513
629.996867021
1829.84202502
629.344687573
1829.67924252
1829.1835592
1828.61005726
629.969775145
629.139184865
1829.35368418
1828.70628896
629.299830603
1828.58491528
1828.17732396
630.709070769
631.123819062
1829.20970214
1827.19688468
631.23356787
1827.32877997
1827.62285544
628.990703518
629.850777745
1828.04209236
1826.63465987
629.001617153
1826.65098086
1824.08937258
629.692863607
629.106202451
1825.51777815
1825.81320495
629.056784473
1823.35783821
1826.71273341
630.61623915
630.273656323
1825.41000921
1825.39058879
629.822358143
1820.93527052
1821.26581938
629.889572728
627.960349711
1823.51241914
1818.43164928
628.696161391
1820.98843135
1821.53451039
629.738125219
628.225894009
1823.58640838
1818.46667389
629.037424209
1818.22946991
1813.01528921
626.946635149
627.013380381
1815.61426103
1815.50906145
627.724154168
1814.28278701
1818.95216391
627.460413983
627.252842381
1816.65035808
1816.21672607
626.228895886
1812.05118903
1810.42986477
626.680773768
624.04062002
1814.01452078
625.587590779
1808.87894948
1812.00706279
1811.37535422
626.103565643
624.143963599
1813.63688405
1810.02163079
625.035299854
1810.13762623
1806.31125258
623.164390926
623.633753069
1808.50365392
624.484034104
1807.39777174
1813.74757651
1819.39724224
627.111408768
627.796385707
1815.95176144
1817.47727203
625.866529582
1810.68781652
1810.76309712
625.683091335
623.435046675
1812.96295837
1808.93790018
623.925784473
1809.55865891
1808.12132939
622.721138386
623.329417864
1808.06297378
1809.58772646
623.162168187
1807.33046603
1809.47240408
623.364044498
623.007822257
1808.53963496
1808.08299281
622.628494622
1805.90596247
1805.32652943
623.084043037
622.12127628
1807.14297291
622.654047462
1804.25670694
1806.62994016
1807.25655701
622.388476863
621.973686459
1807.34772353
1806.50770133
622.107999447
1805.18188884
1803.87617331
621.776566414
621.925947409
1805.38595534
622.283780468
1803.75001447
1806.99854348
1807.56656388
621.948153315
622.058647677
1806.66460627
1808.10759683
621.78289808
1804.19623263
621.431372556
1805.57777379
17104.4287275
17102.9443399
17101.7164505
17099.0119014
17098.396383
17100.0986517
12206.6504668
12205.4384826
12203.8735648
12200.6203844
12200.0563905
12201.8757289
18320.0072158
18322.3448733
17093.2047541
17097.6999551
17099.7138506
17100.5150491
17101.6509644
17098.7663978
18321.1897011
18323.4674396
17099.7898108
17100.3950936
17100.4439722
17100.1036835
17099.7254216
17099.1694845
17101.2706864
17099.6557494
17100.3096652
17100.3510685
17099.5575248
17098.9653293
17098.7072393
17099.1914216
17104.4620086
17102.4783274
17101.7601479
17101.223305
17100.1193941
17099.1505696
17098.7976682
17099.8863997
17100.2757789
17098.9969923
17098.4667162
17099.9824185
13419.3017187
13421.9424463
12198.701032
12200.1779723
12200.958978
12200.6584465
12202.4857922
12197.2536614
13422.751592
13424.6046999
12203.4423989
12203.657762
12201.8604638
12200.7775962
12201.1138715
12199.0501086
12202.3118517
12202.1963888
12203.2085761
12202.5747404
12200.8272945
12200.0287662
12199.7091697
12199.9220038
12206.1797287
12204.8276074
12204.4087865
12203.511301
12201.742626
12200.3226398
12200.1888692
12201.3936192
12201.8786843
12200.2986876
12199.9554917
12201.7211206
8518.41176965
8522.974246
7303.26320152
7303.71744295
7301.18788716
7299.15449208
7302.50001579
7297.69273693
8522.66851252
8526.74105244
7303.41211454
7303.60582035
7300.86491587
7298.77460465
7300.8827507
7299.48681503
7303.34337865
7304.36006609
7306.02093359
7304.53824516
7300.58275865
7298.57977274
7299.719095
7300.98981161
7310.33585896
7307.64700433
7307.13323698
7307.17997605
7305.14860626
7301.08316386
7299.18436038
7300.17775337
7302.38929759
7309.21658062
7308.22494374
7305.8923469
7302.02724503
7299.78851412
7300.01830093
7302.59694482
7299.79239855
7299.83222932
7302.54945292
3621.08735236
3627.71909362
3632.64677721
3634.09711163
3626.11249097
3620.8916281
3626.93554829
3634.35603879
3624.06799638
3623.32396031
3629.09237138
3633.47463785
3634.76181867
3625.87644158
3620.24071015
3625.61654383
3631.92458217
3639.71622458
3630.76971965
3627.20709528
3630.72817291
3635.32011954
3634.95355689
3625.56181416
3620.15619128
3624.97324255
3631.23430179
3634.80361812
3632.10105045
3633.60766168
3636.35460724
3634.69009363
3625.85528758
3621.12282492
3625.20978116
3630.45085726
3636.30510249
3637.33864272
3634.95680235
3627.39478256
3623.37046018
3625.64226068
3628.87075682
3624.07587251
3625.39935991
3627.70484752
8.09089616698
7.80524693003
9.51979247504
15.2453333959
27.2517419601
33.2488095957
40.6204080298
43.7758846808
13.7228153994
12.0378327237
10.7988940752
10.0650316286
10.5646737196
17.2620663242
27.5432637955
33.3483026871
41.4473735575
44.7821859617
15.0975971067
13.24841203
13.3974177643
13.6593333721
14.7257524781
20.3891213661
27.9062392064
33.210624838
40.6127191417
43.5705175373
12.5184685552
11.4215978705
11.4656505017
15.1157569226
22.007870056
27.9999239646
32.4501030512
38.100284337
41.1023199097
9.88947404615
15.6250444497
21.7428521632
26.3607567765
29.7041391212
34.4863198467
38.1143969049
29.7791278788
33.8292793806
36.2039937039
-27.1297987306
-27.0762166051
-27.007523599
-27.0304774993
-27.0591805232
-27.1248686589
-27.5405513435
-27.1391960362
-27.3780768124
-27.7984337719
-27.1285039476
-27.1252037816
-27.0891333758
-27.0395428073
-27.0803219256
-27.1903875596
-27.6718675428
-27.1443332908
-27.3982482148
-27.8646780359
-27.2690480342
-27.1614179306
-27.1270027862
-27.103866743
-27.1124915767
-27.101357121
-27.6561079961
-27.1381064192
-27.3836257879
-27.7172172652
-27.0704627024
-27.0387966301
-27.0237320148
-27.0775852743
-27.0815179506
-27.6138595758
-27.1326935643
-27.3596393483
-27.6640574651
-27.0625623351
-27.1987850757
-27.3321255781
-27.6075457721
-27.1525519566
-27.358453509
-27.7899501987
-27.1367476943
-27.3148222034
-27.797345723
18321.3019313
18319.8462012
18321.6431176
15870.0914573
15871.5834535
15870.4783401
15871.795549
18322.6348785
18323.0426196
18323.3624277
15872.7994292
15869.3192598
15872.8015449
15871.9668365
18322.3255835
18323.2191601
18323.1240142
15871.8771454
15873.2323132
15873.7587377
15874.2797328
18323.4271849
18323.8789517
18324.3656853
15874.1870599
15874.1240813
15875.4158201
15876.1231396
13420.7771817
13420.4428278
13421.5240454
10968.461627
10970.4115811
10969.8494379
10971.5905625
13422.31465
13422.2420597
13423.7450319
10971.9676738
10972.0915355
10972.9961054
10973.5619022
13423.877802
13424.1794504
13424.981463
10972.6264655
10974.2671165
10974.4783498
10975.1981308
13424.6840522
13426.0516473
13429.3683963
10975.4733176
10972.4732656
10975.9448246
10978.9602748
8520.89812385
8520.1372972
8522.36981346
6069.42821654
6072.33886483
6071.16858025
6073.48660098
8523.74137435
8524.30873592
8525.63861638
6075.11443702
6076.63947141
6075.81428487
6078.61353508
8524.8120373
8524.67100693
8525.77229225
6073.07324983
6075.4392048
6074.82325807
6076.55647101
8524.35613727
8526.94945569
8529.29027885
6077.75172047
6078.45258346
6078.35095558
6081.06965695
3618.13789073
3620.23608483
604.775974012
606.263516202
3624.59004694
3622.42110289
3625.3662213
604.740445092
606.861080924
606.930464837
608.447819066
3630.30060829
3628.44836034
3630.87624609
607.755827383
611.280419715
609.127738662
611.933403687
3634.14784945
3632.6581516
3633.83313005
612.575062508
619.072803685
613.344665745
620.424044462
3631.07034731
3633.9000791
3630.82485392
622.820598132
630.258812347
624.416189771
629.613950422
3622.10535716
3625.79666131
3621.58247239
627.743090556
618.499808773
626.921616434
618.654334806
3622.65083807
3620.30619257
3622.25775053
619.353458209
634.396704832
619.562868552
634.852175635
3630.8302629
3626.26404145
3630.08270584
638.523055466
647.252902554
639.139552391
648.155117561
3629.58221027
3633.22268492
3629.57393376
649.991386798
622.033700408
650.580025954
623.625549319
3640.61411979
3633.87649803
621.949103601
610.680254173
621.293452802
614.478572744
3621.92475065
3628.05623892
3624.97329939
608.721795961
607.100821486
612.790551875
610.593972773
3626.08541061
3624.96578957
3626.99920404
607.724455983
609.822130647
611.163711388
613.001647643
3631.77081961
3629.85033832
3632.90058674
610.321233323
612.963218932
613.816224597
617.136013834
3634.73943154
3635.29955085
3636.31489433
614.40521356
621.614218163
618.431090936
625.25194051
3631.45445957
3635.31873968
3631.4903094
625.312036357
629.166019684
628.281385313
628.911637581
3621.49733421
3625.85226414
3621.45359084
626.434630916
618.98200792
625.908606835
619.164039496
3621.89276826
3620.44149684
3621.61785058
619.948601603
634.917814067
620.366122026
634.582795024
3629.1312241
3625.21447334
3628.44504153
639.099549081
648.027163003
638.541166224
647.275942967
3629.96322454
3631.3865627
3630.92129729
650.305468658
623.808274839
649.3017033
623.772779397
3635.20507209
3639.49993956
3636.09508147
621.368618152
615.105934113
620.695979789
615.746484982
3627.93107825
3632.84609078
3630.49752325
613.547793252
611.672814024
614.517165977
612.824311524
3628.48004333
3629.70337799
3630.39900877
612.115538603
613.657148266
613.058316999
614.219002267
3633.18238077
3631.9596275
3634.03187972
614.722688811
617.885175598
615.026283389
618.540807894
3636.29507281
3635.8021053
3636.4182765
619.187002992
625.836770241
620.211032424
627.446967529
3630.95983643
3634.77930696
3630.81632774
628.872675158
629.204125394
630.088659981
628.131044788
3621.2123847
3625.62068646
3621.55790467
626.009171147
619.172226555
625.049716204
619.721128225
3621.57217602
3620.11067107
3621.80357642
620.665850129
634.370041368
621.963546301
633.583791848
3628.07318712
3625.00528354
3627.98723421
638.210793262
646.925127118
636.943045591
644.995983009
3631.75212695
3630.79480754
3632.19116525
648.985043708
623.358022387
647.206313303
621.848181769
620.177236214
615.699292238
3632.9294273
3635.47523801
614.678712513
612.929006499
613.791243648
3632.52975782
3634.58632195
3634.60570431
613.053478655
613.972389676
613.401601482
613.108448244
3635.05651523
3635.14413855
3636.06684896
614.709490545
618.32592722
613.768103898
618.565019258
3636.58348541
3636.87119154
3636.73825478
620.182982876
627.771573481
620.766425452
627.469188013
3630.66650346
3634.73346777
3630.85019925
630.084181551
627.556832248
628.811735318
626.488000496
3622.29120872
3626.55701216
3623.3423347
624.735269853
620.4053882
624.560975352
622.131477008
3622.49295541
3622.28754581
3623.42876964
622.648708914
633.182812788
623.780883274
631.638337632
3627.85186631
3625.52664586
3627.64096396
636.265930492
643.941457625
634.227466903
640.625133634
3632.40377573
3629.65368539
3632.07237865
646.360534152
621.182838431
642.78568988
618.034841689
3636.89147243
3638.02789337
613.471697923
618.518275553
619.129103704
3636.99065588
3638.24153501
3637.60637446
621.07042594
627.471066908
621.481767575
627.020171311
3631.2949434
3635.4538238
3631.86847771
628.609625195
626.37150916
627.737882489
626.531015796
3624.48315793
3628.11315762
3625.24078979
624.76980862
622.625685718
625.500627157
623.613680628
3624.10130314
3623.9828649
3624.4069767
623.896066635
631.020031191
624.131890165
630.349068406
3627.28976809
3625.58366401
3626.87403077
633.390418606
639.456449604
632.222227398
636.920131444
3631.47505317
3627.86833793
3630.80515944
641.357536451
617.010058886
638.007687506
615.064146323
3625.32747577
623.642727827
3624.34426742
624.317092421
630.475092179
3626.63810542
632.217610191
636.455113731
3630.61192479
637.398242958
614.063474693
-23.2513594337
-23.25778841
-23.2552827435
-23.2528604983
9.97313779758
10.496821354
-23.2602697166
-23.2679959964
-23.2574060256
-23.2626366075
7.29295930854
9.27796786968
8.0252681119
-23.2474249315
-23.2008975723
-23.2559569035
-23.2322776902
8.6451622563
7.99042537924
8.49917929911
-23.2107009703
-23.2160214918
-23.2306485226
-23.235045842
11.3998625867
9.49459881859
11.6925600647
-23.2135994279
-23.2121905831
-23.2349853073
-23.2258894417
21.5771937204
15.7892008665
21.9824566721
-23.1607146758
-23.1112300964
-23.1768640276
-23.1268797613
30.7717463832
27.4593940325
30.8707599979
-23.0681604049
-23.0487215777
-23.1035162778
-23.094400679
38.1218452101
33.3854381829
38.4199617151
-22.9558717841
-23.014220546
-22.9693397021
-23.0098000383
42.798926896
41.2889396017
43.6856161733
-23.0370799126
-23.0464149465
-23.0322134907
-23.0432995172
44.3959108135
44.5422104433
45.1147016528
-23.0952476721
-23.0648594248
-23.098460543
-23.0906723825
12.9038828726
14.4150170629
13.5064985641
-23.2505377108
-23.2547345417
-23.241500874
-23.2435727581
11.2832515914
12.6843918576
12.3121914083
-23.2375136587
-23.2373508065
-23.2241038083
-23.2219841898
10.5025172477
12.5194946131
12.6615608718
-23.2332394111
-23.2332361219
-23.22367355
-23.2342291478
9.76084824101
12.454028888
12.5637901719
-23.2587568451
-23.2456175933
-23.2422710263
-23.251025807
12.8265550277
13.0975327703
15.1225647125
-23.228338572
-23.2034898325
-23.2272016469
-23.1913050139
22.8019360677
19.1864039252
23.6408169707
-23.1746724678
-23.1209739715
-23.1691178314
-23.1166606891
30.7486377766
27.6551113602
30.6137987741
-23.125048545
-23.1290692091
-23.1416942645
-23.1540239864
38.3943331325
33.2759417535
38.2481660182
-22.9952311877
-23.0215145852
-23.0206269412
-23.0380641607
44.0389892749
41.1889400352
43.7802395932
-23.0339821891
-23.0400423298
-23.0508761934
-23.0526769019
45.5966358151
44.3683776144
45.0973251217
-23.1013325332
-23.1051067306
-23.1087645801
-23.1070145682
14.0495682301
15.228204652
14.1051987121
-23.2474635495
-23.240409291
-23.2522965361
-23.2314978542
13.2280118633
13.2625989575
12.972412121
-23.2112673469
-23.2122600609
-23.2030487517
-23.2083492979
13.3953659945
12.7318982611
12.5766438223
-23.2152124881
-23.2206191877
-23.2087739015
-23.2080728303
13.9221972202
12.8884365096
13.8174607102
-23.2180251572
-23.2142649033
-23.2058606556
-23.1960134456
16.5670556044
15.3514630529
17.6010470527
-23.1980102787
-23.169968017
-23.1820351181
-23.1675217077
24.3280903593
21.4167590486
25.0767055654
-23.1295834303
-23.083512317
-23.1195132359
-23.0739279274
30.5469687694
28.19750104
30.3108802701
-23.131942676
-23.1496014311
-23.1398460178
-23.1615981401
37.9315983733
33.0965673813
37.2275436504
-23.0483212397
-23.0595837877
-23.083206637
-23.0759440393
43.1267871833
39.6181754204
41.7510501223
-23.0696985494
-23.0692472777
-23.0915564418
-23.0837000011
43.9158861343
42.4256958717
42.7034391384
-23.1121966188
-23.1001201439
-23.125570814
-23.0884949507
11.9074924449
10.5407194895
-23.1903971662
-23.19792887
-23.2069760533
11.1178212185
10.0156855464
9.70275203502
-23.2081266042
-23.2093227454
-23.2153992691
-23.2071516272
12.7910372243
10.3462226255
12.2891353179
-23.1980047449
-23.1870491474
-23.1949405868
-23.1887470301
18.0996938493
15.2461313498
18.426440692
-23.1733053858
-23.1592087007
-23.1714327178
-23.1558916536
25.2423927402
21.9040182168
24.6927226393
-23.1147522679
-23.0730265458
-23.1201262686
-23.0811152052
29.7163241254
27.1638085878
28.718095378
-23.1453808298
-23.1699253746
-23.1411291876
-23.1650131618
35.8533286135
31.008585713
33.9506321226
-23.1163274469
-23.0993395718
-23.1061655887
-23.0868970953
40.0282079633
36.2417584271
38.098313077
-23.1072471205
-23.0953814453
-23.1112804018
-23.0991434382
41.7405425605
39.4915267081
40.3462222989
-23.1381111622
-23.088760298
-23.1398799832
-23.0901119754
12.1931437241
11.9540031289
-23.2010603661
-23.1969018999
-23.2125949681
-23.2019699632
18.6849842708
14.9571681652
18.3605837402
-23.1849919708
-23.181538203
-23.1944034944
-23.185820386
24.0768997477
21.3776633863
23.6317820152
-23.1560767974
-23.1216964283
-23.1581783585
-23.1332575512
27.9353957818
25.9037333686
27.7078241132
-23.1330505506
-23.1525943622
-23.1495369024
-23.1610053728
32.2793953189
29.283435588
31.7678459812
-23.1004872434
-23.1012817888
-23.0943457495
-23.1083514795
36.5154507622
33.7056161684
35.7432083245
-23.1178162629
-23.1025022069
-23.1242212437
-23.1041176912
39.2324066266
36.9981427515
38.1593541446
-23.1482856596
-23.0790844832
-23.1511818027
-23.0698762952
28.0078558127
-23.1026325208
32.2345376213
-23.0743028185
-23.1066969711
-23.0944683508
-23.1090906618
35.3590411262
-23.1135928616
-23.1006063428
-23.1139809401
-23.0985140545
37.0441449377
-23.1495146776
-23.0600121478
-23.151038109
-23.0670658558
1780.77698491
1781.91097999
604.851516504
605.118656166
1782.20979897
604.32966419
1780.52228286
1781.36630722
1783.58110082
605.598432017
605.846241348
1782.76272746
1782.36500797
604.909336452
1785.61651085
1783.47067184
605.305615222
605.311285342
1783.8957958
605.552988694
1785.35532087
1787.35226938
1788.85995706
606.182981952
606.978306886
1789.07133104
606.097597007
1787.14065927
1786.14729779
1785.21918633
606.20158667
607.344793955
1784.5300473
1786.80837795
606.360954344
1787.79339018
1789.92299381
607.482543504
607.743835809
1789.46123481
1788.41234795
606.680311768
1791.99097978
1790.34391685
608.900194955
607.837521218
1790.55652627
608.877570524
1791.81194232
1793.35352059
1794.6852725
610.082585656
611.189845922
1794.80093308
610.011915379
1793.20908596
1792.33315222
1791.33655047
608.393648448
609.968752565
1790.94587965
1792.73230103
609.284743123
1793.70261803
1795.72577067
611.403873572
610.849007661
1795.16545382
1794.21004419
610.239111564
1798.10919871
1796.27273288
614.203877253
612.501582485
1796.39339935
614.145667026
1797.97581832
1799.87760785
1801.52844654
616.33586138
619.162309996
1801.73007922
616.331617753
1799.75102046
1798.47848216
1797.27757139
612.728924004
615.081109146
1796.73681081
1799.04918304
614.428757278
1800.2737704
1802.69094718
619.6448661
617.521024828
1802.13446418
1800.82261076
616.712609979
1803.7905978
1803.00812022
626.646499422
623.071302398
1803.21756335
626.884629527
1803.64208021
1801.83538218
1797.06520115
630.036441212
630.47211679
1797.03209083
630.302143698
1801.77577597
1803.85710287
1804.10123812
623.656662537
627.678623079
1803.70301653
1803.84155204
627.192602849
1801.5836599
1796.00346366
630.104307235
630.036931973
1796.64876097
1801.12886342
630.143582882
1782.83979101
1790.46206045
624.497240545
627.894519815
1790.23784986
624.537586929
1783.23093349
1777.00530961
1774.82783096
620.417444134
618.500071685
1774.26542653
620.35459264
1777.43723573
1782.54351295
1789.23067487
627.510319244
623.760740671
1789.88249653
1782.08594337
624.274872941
1777.00107377
1774.39132789
618.477145372
620.239983724
1774.27487023
1776.85313438
620.313927462
1777.74506365
1775.61664237
623.80058987
619.323085944
1775.10397721
623.759383177
1778.2073128
1781.13055094
1785.58592566
629.480330123
634.599261157
1785.19754969
629.606550603
1781.63214823
1777.59165819
1775.10609624
619.398504899
624.102160217
1775.02736799
1777.54694977
623.94868547
1781.08217281
1784.75085497
634.768067211
629.80296693
1784.97753988
1780.91099059
629.69451214
1792.10223542
1789.10815404
641.85570242
638.699495532
1788.82571504
642.211836685
1792.33647131
1794.71166902
1796.27686319
644.870986911
647.72419702
1796.09243341
645.415964996
1794.87130966
1791.91265804
1788.38245527
639.014549779
642.652653381
1788.61984276
1791.65113727
642.54332115
1794.55846512
1795.19273278
648.089313994
645.828644474
1795.76646493
1794.17582415
645.807131315
1792.1984193
1795.42168602
652.593216623
650.430668847
1795.26653524
653.063551457
1792.48817865
1787.45054561
1788.88248016
655.266841884
622.611486171
655.922348752
1788.98963244
1787.59060056
1791.68600161
1794.14986178
650.613436629
652.719505399
1794.79642647
1791.19498524
652.812060875
1786.922858
1789.20021256
623.159831076
655.079311082
1786.3312768
655.167427634
1789.13522063
1800.45403853
1805.96966106
618.513491651
621.531588667
1800.16996984
618.511267586
1805.03323006
1795.71872407
1789.12180981
614.040313899
612.574893116
1794.06572203
1791.18241761
615.627321085
1800.49037802
1803.7736314
621.000566579
619.24777928
1800.57097075
618.800999064
1804.18729755
1796.63818956
1794.06789452
613.714812783
616.374255406
1792.77698956
1797.06706967
616.621532922
1786.08357206
1785.92585586
607.397888161
609.77422968
1784.21746818
1787.77658352
608.598631327
1785.37682168
1784.42677277
606.885661664
608.282365049
1783.83028672
1785.44038024
608.271745045
1787.847489
1791.450705
610.999255919
611.281124046
1789.6916702
1789.29169578
609.965219609
1786.77998139
1787.914589
609.439533778
610.418701724
1786.64690529
1788.10255744
609.43992073
1787.65269294
1785.73795568
608.369250599
608.699773809
1787.22537411
1786.33850098
609.377524817
1789.1914081
1790.3084604
609.219905248
610.941243224
1788.89459425
1790.70955414
610.250829215
1788.24886578
1788.22216091
610.002061629
611.610449379
1787.21206999
1788.94180049
610.63980899
1789.52239673
1791.27869466
612.126768636
612.229419957
1790.87665416
1789.98961036
611.462852423
1793.77953389
1791.72050499
611.15030053
611.531908912
1793.21934805
1792.11939303
612.392455248
1795.33470077
1796.35073215
611.876771127
614.287906575
1794.73740344
1796.97287336
613.210820045
1794.14584788
1792.82471855
612.757821401
614.766687775
1792.47441421
1794.45482925
613.755873499
1795.8354565
1797.86858289
616.000383388
615.868754183
1797.53518852
1796.167602
614.889186043
1800.31915017
1797.90091173
616.163218236
615.617551109
1799.60586576
1798.52922442
617.435951744
1801.98516302
1803.13253118
618.599481674
622.776911144
1801.33571077
1803.58132335
619.823477725
1800.93913655
1799.59387685
617.260754024
620.210239257
1799.18684653
1801.33781478
619.091765918
1802.52632793
1804.25422147
624.215393828
622.51972939
1803.9589027
1802.88063131
621.46399905
1803.18001336
1804.18924972
628.185396404
626.231506386
1803.51781187
1804.30786616
628.544274306
1799.71579459
1795.21736059
629.848519004
628.70860286
1800.44616249
1794.40296777
629.664397766
1802.94070999
1804.54191393
627.334099496
630.012256754
1804.39805351
1802.90403369
629.235884198
1799.34425166
1793.65127621
628.689842403
630.288773969
1794.01585872
1799.09503801
629.832219015
1781.4834882
1788.65871986
623.520808269
625.988632139
1781.8583995
1788.0170091
623.160503257
1776.82105668
1774.6870182
620.388568929
619.101460247
1776.93578594
1774.893427
620.30331721
1781.3415846
1787.38940285
625.87811483
622.881865524
1787.71286438
1781.11933094
623.035687031
1776.86852735
1775.30287381
619.154574724
620.232839096
1775.10832943
1776.82420511
620.282705094
1777.82549735
1775.38663134
624.406528131
620.09691698
1777.74464654
1775.59506808
624.469026935
1780.67845767
1784.61131005
629.978047581
634.872266599
1780.70154909
1784.44903755
629.999190701
1777.72980478
1776.05900354
620.243288861
624.606234842
1775.8239131
1777.8460344
624.561164946
1780.61260969
1784.27981044
634.737633472
629.930089996
1784.33027645
1780.64592898
630.000094958
1791.0494667
1788.20652151
642.544131452
638.950922218
1791.3568605
1787.95001553
642.418801494
1793.43604092
1794.72826659
645.742362431
647.879625694
1793.76024493
1794.42634807
645.640943795
1790.81847306
1787.67544054
638.713918407
641.924865618
1787.77443759
1790.68156786
642.145216602
1793.14364864
1793.93814244
647.5073543
645.104671979
1794.12734187
1792.96181887
645.370882341
1790.37255492
1793.68372904
652.395922758
650.042714973
1790.73294412
1793.38201232
652.098360994
1785.29721948
1789.23312891
654.903200188
624.044865292
1785.85597365
654.532024439
1789.39848766
1790.15243832
1792.9678889
649.511593475
651.273404931
1793.11502739
1790.07327944
651.516948304
1785.17528779
1790.1831054
624.037851132
653.688320448
1785.17642782
654.006299319
1789.82353964
1800.55670419
1803.19545769
619.45615967
620.922900655
1800.5655596
619.552236808
1802.53501189
1798.25797085
1795.00833896
616.851646717
615.551835611
1797.71678886
1795.6072949
617.854440078
1800.52020649
1802.34455201
620.733287887
619.050766243
1800.53807277
619.486946225
1802.25352645
1798.51912132
1796.85507746
615.799615961
616.909051502
1796.20166591
1798.57428265
617.888234727
1791.68799672
1792.61894308
612.124006045
613.281820061
1790.60159828
1793.20288872
612.718319139
1790.72921557
1789.13852758
611.499882073
612.276783109
1789.42776699
1790.23958161
612.559182984
1792.70939376
1795.23179101
613.705532362
613.476778923
1794.04483025
1793.8691481
613.178768042
1791.86549131
1792.6131841
612.611274072
612.829851723
1791.42610068
1792.92353572
612.934834435
1790.83422089
1789.27012575
612.445929543
612.444715531
1789.83123975
1790.26424708
612.946291311
1791.68868712
1791.90745538
612.85350525
614.062249855
1790.71580232
1792.71448438
613.472923848
1791.93763945
1792.71484159
612.687716968
613.201842455
1791.44270898
1793.14460282
613.148209356
1792.71814614
1794.59759535
614.238741693
613.568773242
1793.63221382
1793.77154403
613.693100554
1795.36459028
1793.35448706
615.695222262
615.047923427
1794.89781742
1793.97170618
616.093019208
1796.89660831
1798.04507771
616.715513481
618.311515541
1796.50471486
1798.37664886
617.167271376
1795.99127833