/*--------------------------------*- C++ -*----------------------------------*\
| =========                 |                                                 |
| \\      /  F ield         | OpenFOAM: The Open Source CFD Toolbox           |
|  \\    /   O peration     | Version:  v1906                                 |
|   \\  /    A nd           | Web:      www.OpenFOAM.com                      |
|    \\/     M anipulation  |                                                 |
\*---------------------------------------------------------------------------*/
FoamFile
{
    version     2.0;
    format      ascii;
    class       volScalarField;
    location    "5";
    object      p_rgh;
}
// * * * * * * * * * * * * * * * * * * * * * * * * * * * * * * * * * * * * * //

dimensions      [1 -1 -2 0 0 0 0];


internalField   nonuniform List<scalar> 
28582
(
19554.8150573
19552.9356268
19555.1639887
19553.4384948
19556.1762347
19554.5304153
19557.4297047
19557.8209171
547.680626118
693.747196962
0.0457166849092
19557.7965961
18422.2156943
18395.6356715
19556.8648089
19557.7565952
18369.4724369
19556.9979824
19557.6949028
19555.7064206
19551.2041315
19549.4833233
19555.606623
19551.3583457
19549.1579187
19555.5616
19551.6218264
19555.1087842
19554.4609352
746.968730442
-0.0083368623201
0.0798448692983
19554.7853055
19556.2026033
18377.3597431
18361.311268
19553.8259745
19550.6694466
19555.1424762
19550.9624858
19554.6532449
17898.3969108
19555.1457766
19547.658938
579.190815071
689.431369001
5.03201190866
5.9178743091
630.467903291
4.79526045865
19555.3855059
19557.518033
18415.2374841
18436.0578301
19556.7419832
18426.0815595
19556.4565129
19558.1361028
19558.2542554
18408.0681712
18410.4017068
19558.8169277
18417.1798083
19557.4670235
19559.2297107
19558.7341822
18333.1206181
18388.6150682
19559.14782
18356.2145544
19558.7448765
19556.2940772
18223.0355216
18244.6218547
19558.4635044
18283.5358057
18305.6245996
19557.9469715
19558.9743194
18274.7368222
18305.5575502
19559.357038
18355.4421822
19560.0869593
18336.2774172
527.812202059
1.566048749
533.660670424
535.683952574
1.46534879943
1.37871195193
748.633118065
6.76936780175
6.90758172353
799.177816252
8.79004607551
787.846936115
8.49199962613
19551.9924978
19551.101898
18376.9826776
18419.8558387
19551.1868405
19552.3033602
18403.5458305
19552.278244
19552.1846491
18369.9048281
18364.7342296
19551.5334199
19552.0991859
18387.0519132
18410.7117057
18395.9529923
19553.9629378
19552.6016605
18370.1600302
19552.779498
18396.7908211
19553.9545597
18149.7315888
18171.038568
19551.2842197
18072.2416891
19550.6757049
18080.0950932
19547.070339
19542.9162753
17989.3966834
17883.4720125
19547.1232509
19542.2015575
17981.942968
19552.451446
19556.3005532
18190.0823264
18220.6698299
18112.650624
19551.2970128
18088.9589654
17993.1278877
17861.2735309
19541.6781243
19547.0201191
17870.6495486
19542.0180796
17978.2272423
19547.4220087
19546.7063086
832.414582123
-0.206402278244
19556.2258106
18385.3064763
19546.6184727
19543.5208961
17789.6477993
17723.0209246
17430.0741476
19542.059085
19542.6621863
17428.2255599
17469.9846156
547.581249262
849.474532479
880.728315423
8.50797332471
8.94701481373
9.00717829535
915.762369352
955.874932895
19554.7676932
19554.64513
18353.3558731
18377.536566
19553.6248622
18352.9355638
19555.7609482
19532.0680134
19538.2038345
17688.5161765
17774.3826775
19533.2441295
19537.0927848
17663.9035246
19530.8730559
19535.4727163
17746.7165479
17594.8930447
19536.496696
17627.9141671
19529.3886837
19526.7846451
19524.464632
17471.6419198
17505.7776041
19525.5925767
17539.5228712
19525.4212732
19525.6853268
19524.4227589
17468.9711528
17439.0985454
19525.6083186
17457.0158626
19525.3678458
19526.8757182
19529.1195726
17464.5767059
17451.6926423
19528.3058391
17456.1796528
19527.1169707
19579.9265857
19573.3178181
19565.5851537
19564.3443187
572.928625681
628.904174476
621.309715708
665.354615165
639.965124488
-0.0245941468581
0.482411574738
-0.0129723319609
0.313915536683
0.00995045116567
0.303170241293
19584.1638612
19583.0412722
18882.590105
18868.435378
19582.9860246
18867.0894368
19581.1043002
19579.0244565
18868.3944086
18810.6678763
19577.3571146
19576.4753369
19572.8959041
18849.9502151
18628.4540903
18706.6664844
18382.9683194
19568.7029255
19564.4275048
18553.7040291
18475.6439405
18315.7130696
18311.5289524
19569.4342103
19567.5845882
18637.1736899
18306.4432455
18248.3498003
19562.0693049
19564.1319196
19561.1328273
18249.6241789
18286.776773
18215.3467827
18236.8275864
18285.0102338
18255.1534336
546.487511163
547.768104262
560.794353329
0.269293983874
1.23676734895
0.856566201524
2.6597394769
5.34477594121
8.90212589035
7.16308090566
8.74696225855
544.487657279
551.735229691
609.955801556
597.41931575
638.96700283
2.38018080148
4.01180547143
3.80678185395
4.89073292255
627.53842791
649.675941781
643.038907905
7.03586705161
7.72167958271
7.37381457407
8.16273536747
657.575752475
655.537109082
4.5749094467
5.40849914751
5.21108624621
659.276163359
664.81457632
664.10991744
7.46057922977
8.58245949583
6.6167887485
8.2009770538
19584.5244829
19585.4685622
18880.6061164
18876.0550216
19584.9238853
18875.3733162
19584.966544
19584.0622213
19583.8633763
18872.7473679
18870.3460951
19584.2734082
19583.9507774
18872.8470756
19583.2941412
19583.2675021
18872.7299559
18851.3650702
19584.0499645
19582.3157934
18873.3829614
19582.7103051
19582.8051791
18872.6428735
18868.8091967
19583.3596335
19582.0341159
18874.1850057
19581.8648135
19579.1279827
18843.2553814
18868.8974302
19580.7068767
19581.0085607
18874.514913
19577.7141377
19581.860523
18805.5946945
18825.3110717
19580.2824815
19580.4872036
18743.9471684
19574.5440968
19575.3492019
18717.6309164
18531.3131561
19577.8989269
19571.4587584
18632.510128
19575.2571482
19576.1966533
18767.2759354
18585.1091339
19578.4302023
19572.3607527
18670.4316657
19571.7929762
19565.4149236
18445.2139142
18470.9806749
19568.3751944
19568.5389523
18548.0536135
19567.6001681
19572.9057665
18514.3252812
18486.6630655
19570.9812898
19569.4375059
18462.3869911
19565.4383203
19564.5031133
18501.6088856
18389.6168328
19568.2542631
18431.7498555
19561.8055789
19564.7686793
19563.6493228
18411.796581
18295.0591393
19566.1633357
19562.4110143
18392.0993062
19562.9690872
19559.0175334
18336.5416854
18303.1356336
19561.0536884
18366.37754
19559.9517027
19566.6078411
19573.7637638
18503.2711885
18587.680011
19569.4001911
19571.1290479
18440.5912219
19562.7889967
19562.5164634
18391.1698218
18217.1163721
19565.2759418
19560.1156165
18310.6181439
19560.9737889
19559.6820701
18199.0415761
18313.2506502
19558.9635232
19561.2261659
18286.1207681
19558.7005872
19560.990078
18247.492503
18220.44914
19560.4226502
19559.5139184
18221.9955071
19557.4059293
19557.3534758
18269.1274333
18228.6183122
19559.3417837
18217.9533049
19555.9444809
19557.5042553
19558.5634547
18203.2087464
18210.8731761
19558.2437624
19558.0175065
18205.8815146
19556.5039264
19555.3060277
18206.1422381
18220.0678297
19556.8373475
18198.7579817
19555.3383167
19559.2364352
19559.8914125
18250.6916954
18335.3070159
19558.9973176
19560.580266
18324.5648884
19555.9171297
18243.4093129
19557.5699864
19553.4175225
19551.9317338
19550.705647
19547.998239
19547.3720644
19549.0725585
19553.6169158
19552.4062076
19550.8465651
19547.5799418
19547.0118837
19548.8206749
19544.5289743
19546.8549022
19542.1035785
19546.4720514
19548.5270057
19549.4358436
19550.6214096
19547.7501508
19545.6841824
19547.9519439
19548.7395683
19549.3661273
19549.4141752
19549.055068
19548.6777542
19548.146504
19550.2541275
19548.6381107
19549.2924572
19549.3349615
19548.5438734
19547.9535244
19547.6949173
19548.1786691
19553.4445096
19551.4599599
19550.7439675
19550.2124443
19549.1111496
19548.1423124
19547.7890921
19548.8754032
19549.2665677
19547.9869559
19547.4539893
19548.9692152
19542.3383402
19544.6138766
19543.5837757
19545.0279199
19547.297274
19547.5825284
19549.463862
19544.2028459
19545.4765504
19547.1711746
19549.8655774
19549.7287934
19548.358384
19547.6799912
19548.0789389
19546.0169824
19549.3119944
19549.1683161
19550.0931661
19549.4477585
19547.7346394
19546.9816308
19546.6786474
19546.8929
19553.1474883
19551.7945429
19551.3806387
19550.4888974
19548.7197804
19547.29761
19547.1585542
19548.3622409
19548.8551826
19547.2764201
19546.9321918
19548.7004869
19540.1967462
19543.8347583
19544.8717551
19546.4562423
19545.8476848
19544.1191171
19547.5046883
19542.6712261
19544.0677852
19547.638452
19547.9626795
19547.9896068
19545.5417606
19543.7140621
19545.8670719
19544.4659257
19548.3923002
19549.3614461
19550.9789261
19549.4596885
19545.5130038
19543.5398886
19544.6881857
19545.9644049
19555.3106637
19552.6142271
19552.1005352
19552.1498691
19550.1198568
19546.0558574
19544.1597265
19545.1517447
19547.3637324
19554.1907754
19553.1992523
19550.8674865
19547.0084442
19544.7732752
19545.0044825
19547.5857288
19544.7858522
19544.8264128
19547.5413527
19541.5305746
19547.1161774
19550.2646137
19550.8477976
19544.4643791
19539.2707573
19545.4570034
19552.9161444
19542.7696407
19541.9670096
19547.6602902
19552.0665018
19553.3309488
19544.3304541
19538.5946814
19544.0640342
19550.4560216
19558.2604659
19549.2743313
19545.6689099
19549.1542391
19553.7698257
19553.4502331
19544.0158085
19538.5496396
19543.3775635
19549.629114
19553.2803702
19550.615656
19552.1469662
19554.8752156
19553.1852515
19544.2940772
19539.5101205
19543.6323542
19548.8559725
19554.8626096
19555.8695219
19553.4749503
19545.8487951
19541.8133778
19544.0885111
19547.2735634
19542.5099642
19543.8225023
19546.1173832
515.837244306
513.572516651
545.102356143
641.875833529
848.437374107
958.997644517
1096.8916568
1150.97340726
616.013409606
590.540622253
569.747195301
555.932778961
560.248317284
675.478947235
852.765406194
960.355233526
1110.83811845
1162.99975291
639.669651861
609.384464326
617.925331915
623.27940449
637.052502885
731.301028108
860.383742548
959.813848773
1097.24107355
1147.36812527
595.216904207
578.661004416
577.854875528
642.319969263
760.722234576
864.939221721
952.435316779
1054.02693817
1107.87593126
547.045682247
655.908847732
757.227965745
832.511831648
901.662741827
988.226058144
1051.18471345
900.804131958
975.216437216
1010.15580691
0.132081078981
-0.0864573559537
-0.0293317811838
-0.0529108882958
-0.0806957756302
0.0853803020841
0.555341005545
0.0297628952652
-0.400576812392
1.20367886591
0.0700488924203
-0.0819472345504
-0.0951841794866
-0.0466942318785
-0.0578273674771
0.167097734491
0.625316153598
-0.0229904039108
-0.420748214799
1.47146047824
0.276149327546
-0.0289590098555
-0.10799820067
-0.101121552231
-0.101555726646
0.0876875551576
0.413817897539
-0.0772942322973
-0.406125787948
0.77753707308
0.012025438318
-0.0359245162857
-0.0337696565712
-0.0703732920491
0.0793849436087
0.463394999119
-0.0935473066312
-0.382139348328
0.633437459082
-0.0189080256299
0.00175066512746
0.208212278965
0.484553969708
-0.175051956636
-0.380953508998
1.23186158959
-0.159247694274
-0.337322203356
1.55324233964
19545.8188764
19544.3429678
19546.1369303
19543.8678948
19545.2826803
19544.1215961
19545.3925713
19547.1374694
19547.5329555
19547.8473529
19546.4001195
19542.8351269
19546.3422198
19545.4524596
19546.817191
19547.711496
19547.6141017
19545.3642608
19546.7131301
19547.2343865
19547.7498583
19547.897968
19548.3609624
19548.8392058
19547.6433707
19547.5384937
19548.8689386
19549.5498744
19543.6290109
19543.4842404
19544.4014962
19540.8573029
19542.550931
19542.190856
19543.6166171
19544.8517881
19544.9217246
19546.273612
19543.7598621
19543.5860684
19544.6434562
19544.6529815
19546.5288662
19546.6416652
19547.4140767
19544.6872686
19546.1974515
19546.1246162
19546.8102314
19547.177285
19548.4911617
19551.7992604
19547.1843815
19543.9201138
19547.5028935
19550.4735159
19542.2753911
19541.6434128
19543.5443859
19540.5167663
19542.8855276
19542.3728194
19544.2200023
19544.0930732
19545.081887
19545.8639841
19545.0201008
19545.5620609
19545.9399185
19548.2539095
19546.0212415
19545.4943088
19546.5376348
19543.4154148
19545.6137936
19544.4172325
19546.1365434
19544.8684225
19547.617578
19549.8718588
19547.6665314
19548.1173258
19547.9134829
19550.598283
19538.6274878
19539.9153258
18080.4991228
18071.3901686
19544.6248795
19542.0775844
19544.8250988
18146.1448618
18282.8241158
18123.0398346
18271.4643382
19549.0666438
19547.6064907
19549.6915441
18287.8615491
18318.4436912
18292.9074267
18349.3711828
19550.1072082
19551.1611255
19551.9011022
18336.9655531
18379.0130848
18365.5155127
18396.7580463
19549.1382745
19551.8857714
19549.0705127
18386.0940571
18114.6361333
18402.1124593
18052.0880386
19540.4004645
19544.101238
19539.8182805
17846.4888754
17140.5990395
17788.1271725
17128.9897017
19541.1368359
19538.5578586
19540.6357885
17132.7657323
17223.0765611
17129.728378
17201.7221955
19549.3983717
19544.8891392
19548.7837817
17291.7893998
17388.2030033
17257.3425037
17343.7750677
19548.1506204
19551.9316661
19548.2322492
17472.9383026
17236.9001009
17429.5463326
17163.6439188
19559.3382258
19552.588745
18400.5017014
18086.2845714
18293.5892973
18149.9458644
19540.6051848
19546.7488121
19543.6465414
18048.6275251
18064.5479792
18130.7309754
18069.5622899
19544.6822273
19543.6155394
19545.5844703
18105.6849846
18224.9874948
18075.0485823
18116.2114664
19550.3402813
19548.3661928
19551.3909639
18255.9391977
18358.1451136
18151.3512222
18252.8692005
19553.3598821
19553.8035036
19554.8366605
18374.8737171
18402.6075418
18285.2965027
18339.997147
19549.9756873
19553.8558291
19549.9895313
18390.0466227
18010.4152376
18311.5204301
17935.6810834
19539.8510978
19544.301906
19539.7684235
17764.3172541
17154.4652871
17713.1989081
17176.1187757
19540.3186626
19538.8440873
19540.0078238
17145.3063672
17206.3867456
17166.3339315
17210.9988734
19547.649538
19543.6662932
19546.8972792
17255.0819629
17331.31017
17256.3733459
17331.3429945
19548.4852401
19549.8322844
19549.3692798
17417.5451049
17164.2825681
17416.0571845
17186.4583736
19553.7431503
19558.0225875
19554.6200095
18277.2366968
18154.1041246
18234.8587442
18162.4292465
19546.4211906
19551.3563071
19548.9853382
18140.8292031
18072.7327667
18164.5189298
18128.5175947
19546.9159605
19548.1832951
19548.8640697
18076.4419001
18109.9091594
18151.3846137
18204.2318737
19551.6242673
19550.4385119
19552.5064268
18141.8752193
18227.0925782
18224.2660192
18243.3338508
19554.8030284
19554.291966
19554.930314
18256.5659134
18313.145279
18245.7236289
18275.3317297
19549.4353474
19553.2945313
19549.3320369
18291.8453064
17928.1215117
18239.4452707
17833.240809
19539.6279638
19544.0737882
19539.9316551
17706.2811504
17180.3388137
17632.3269011
17211.3030833
19540.0198451
19538.5792209
19540.2514334
17177.7346981
17215.5698878
17219.1777953
17261.342378
19546.4681284
19543.4876949
19546.456852
17260.3161722
17337.8507942
17301.2179421
17394.7424232
19550.1643481
19549.2428741
19550.6449321
17422.4867506
17205.2430481
17461.7976119
17270.2352287
18255.9442467
18185.8384786
19551.4239643
19554.0246552
18188.2386589
18167.4702012
18332.4320421
19551.0689903
19553.1380738
19553.1620201
18190.8711249
18246.6131204
18339.5624727
18352.4839171
19553.6057902
19553.7154693
19554.634176
18263.5745479
18269.6462845
18353.9804561
18319.8270489
19555.1174545
19555.4270846
19555.2752891
18263.4133998
18269.4438538
18289.4769821
18225.9968386
19549.118762
19553.2295214
19549.3215158
18222.2862943
17808.2394072
18161.0078185
17825.7428574
19540.7072947
19545.0104991
19541.7663468
17625.3824713
17261.203967
17685.4936367
17434.1001727
19540.9389372
19540.7886492
19541.9106479
17260.4098341
17292.7337997
17411.7796607
17429.1372248
19546.2576357
19544.022502
19546.1169171
17322.6074388
17404.0551827
17437.7189563
17470.2510034
19550.8181127
19548.0926644
19550.517246
17470.8272796
17267.0587947
17508.4997583
17247.3188407
19555.4556731
19556.6108725
18355.7216846
18313.1770598
18367.1744977
19555.5308049
19556.8028936
19556.1526124
18278.8908268
18217.7934638
18352.8901491
18221.0790707
19549.7867076
19553.9702382
19550.3631572
18155.8682187
17847.7749195
18149.5055283
17900.1362331
19542.9404769
19546.6020026
19543.6989411
17720.3529152
17482.0052302
17792.977433
17546.2638312
19542.5658962
19542.4978977
19542.8914976
17452.7765356
17460.2105039
17509.0419808
17497.4277316
19545.7043265
19544.0698237
19545.3472938
17464.9322563
17475.5223527
17499.3082377
17474.6403992
19549.8671175
19546.2950268
19549.228238
17502.2726735
17267.9711375
17493.2273167
17249.5362773
19543.7814883
17529.5685331
19542.7757164
17502.8041109
17484.0239412
19545.0415826
17487.9552871
17478.7300175
19549.036211
17499.7539674
17284.1482444
6.95967354594
3.52939523914
6.3784101069
2.95168899538
556.258699975
564.226665421
0.94118061952
0.412826168282
0.912809237507
0.568991643059
500.407609475
540.43293288
515.037218229
0.219629680778
0.100263039216
0.392680146721
0.193230533317
530.268450165
515.52119904
525.640215892
0.0906612831458
0.0853629913494
0.0862034755547
0.08293414643
577.035382274
543.543325674
581.614957233
0.0948227361282
0.184651654249
0.0902642771866
0.32748170706
752.563096574
650.646554767
759.014436929
1.83176500769
8.50836429594
2.65424617188
9.49238268804
910.747095452
851.840614057
912.154318149
14.4842207097
16.7131112183
15.556239999
17.1435948905
1052.38523219
960.578726797
1056.84534053
12.4914360141
9.57088808028
12.4162242694
9.77481397157
1140.17711404
1108.53940032
1155.64382477
6.17955885438
4.28903949766
6.61417991702
4.97588481932
1127.08966759
1162.62832253
1137.92361776
7.62765999675
33.5884545145
9.81205507946
36.2802302348
603.547303491
627.700565104
613.750807296
5.79577548325
3.23311147983
6.42740038319
4.20759435033
577.292866803
600.693098731
594.763884838
2.02291288936
0.955912376631
3.1280504098
2.14156052833
565.497588472
601.709731485
606.731588253
0.50172507599
0.678629114175
1.25814529009
0.946392676236
546.841444376
599.643266785
600.20420931
0.929018636685
0.754393299726
1.23750039728
1.65902765451
598.876605129
606.895324551
639.420935014
0.901834550308
1.79683067792
2.33836297591
3.74365433173
773.004950258
710.302858408
787.686675649
5.16475287452
10.2194475455
6.32657839754
10.1001738866
909.662211674
854.622325052
907.610819262
16.0584569951
17.3662560609
15.5092153921
16.9588117158
1055.97453216
959.565547093
1053.4182842
11.9209219635
9.46348905906
11.4802950875
9.2697989556
1162.01782031
1106.16519178
1157.39282675
6.85583723605
5.68959988853
6.82205982234
5.68348413779
1143.31638552
1155.14565826
1132.66976041
11.8150474056
39.4961191912
11.9011933127
40.1394449918
621.879615968
643.00128923
622.152416447
7.88451540501
6.29339502522
8.11132343109
7.48231576817
612.179844749
609.119090288
606.912491933
4.46827509041
3.03029169632
5.78178732632
3.89410998157
617.717014184
604.112835484
601.057237534
1.91219721538
1.19429845252
2.51344883542
1.58305450371
627.377605775
607.037705901
623.087518088
1.04974457485
1.47402037135
0.995588587658
1.24310392726
665.061084663
648.558785505
684.679239339
2.1858294846
3.84870203217
2.07595150366
4.32527249526
799.995427566
749.959568329
812.431780679
6.26274109522
9.4382679322
7.38577297818
9.86128260396
908.333086467
867.241745808
905.081398298
14.674246356
16.0958902248
14.5332753215
15.672049603
1048.82080437
961.198984604
1036.36721385
10.5632279066
8.26020173506
9.7583794863
7.48801129313
1147.57594666
1080.19934913
1122.97782805
5.86649184692
4.31294813294
5.08443722899
3.46369819976
1125.45602797
1128.96377145
1105.49294007
8.37941532495
30.6178845035
6.48702304905
27.4492548238
585.807823477
561.838191139
5.76264115279
3.68267319645
2.75487105492
572.310176539
552.143980075
545.101296699
2.33903021291
1.4319635021
1.97268422869
1.22811942456
601.139560899
555.952951277
591.761300424
1.13600605774
1.50119002583
1.44742220656
1.90724307348
693.207953633
645.197526805
698.960671522
2.29954738618
4.72785961715
3.06298795851
5.30783649424
816.414023212
759.11126603
807.360244746
7.68097160529
9.47493076314
7.33675071537
8.98984772849
894.987918207
849.03740872
876.44010111
14.4917012971
15.2625278986
14.3506320458
14.5216961622
1012.28457381
925.034069
976.767502617
8.43517640569
6.22610308821
7.55199524267
5.77534890568
1092.28963193
1020.6795749
1057.04076013
4.31982470931
2.77610399671
4.14530714924
2.82352431523
1093.6615221
1078.71053482
1067.13551736
5.13606685153
24.641858038
5.27902703224
26.5664969202
590.075789044
584.545312963
1.66941989672
2.38179066313
2.0532653379
3.02483734648
705.048077368
638.130677459
699.051801966
3.17533651594
5.55603232809
4.36618260761
5.84400647539
795.203512315
750.242291645
785.991311675
8.03375683533
10.8655140148
8.08716851685
11.1263279212
861.777226711
823.816097617
857.457139673
15.2286151999
14.2567097444
14.1308163537
13.4911054157
946.832314963
892.364244493
937.647061798
6.91792652158
5.06908484083
7.04679423744
5.5016458495
1028.16581375
973.600910947
1013.36049456
3.86302136684
3.44471246415
4.5752866521
4.90511400454
1036.11599661
1028.19820907
1014.0267753
7.15629476276
33.9619693723
10.9152818708
38.7492429962
866.960472159
8.53530690329
947.720931552
7.12150023927
5.77018854055
7.4435319384
5.72309253816
1005.12880764
4.90362875797
5.48835974613
4.8771545519
5.32953563527
985.141398973
12.534911277
43.7836667628
10.9960853932
39.8007729134
19534.406799
19535.4396707
18029.1549261
18071.1758464
19536.0381053
18006.5205565
19533.9465593
19534.5357009
19536.7026151
18059.4537163
18019.9836632
19536.1437448
19535.3440184
18012.0845493
19540.3869572
19537.839701
18226.7136686
18156.6090208
19538.0024042
18221.0709505
19540.448429
19542.316416
19545.0224117
18271.6977823
18291.6330392
19544.2700373
18268.5038033
19543.1302485
19540.7564738
19538.6446255
18138.4280585
18176.5181165
19538.2870351
19540.2505815
18199.2491184
19542.6833177
19543.0197706
18298.7290386
18231.7308612
19544.3972529
19541.700562
18259.060501
19547.4823232
19546.2986343
18294.5781313
18298.920176
19546.219641
18305.2113103
19547.4571331
19548.7252759
19549.3425654
18303.8515215
18326.6242583
19549.8576562
18313.2453362
19548.4192453
19547.7074219
19544.0826574
18316.5702129
18311.3858033
19546.1154495
19545.692292
18325.5205858
19549.1606659
19550.8428276
18344.9015168
18330.0000656
19550.5362079
19548.2894655
18333.505203
19552.9488172
19550.5583875
18354.9770299
18344.0574559
19551.3091548
18360.6859797
19552.0990191
19554.5341684
19555.6080487
18371.2398638
18381.2649284
19556.498127
18373.200012
19553.7473209
19553.7853353
19552.7261953
18359.0244745
18378.5353948
19552.0904188
19554.6765283
18371.7129008
19555.6402284
19558.140563
18387.3129908
18390.6687022
19557.4890743
19556.485201
18381.3398649
19558.4944816
19557.399526
18381.3486138
18390.5761226
19558.3898591
18387.8488004
19558.3219132
19555.8538931
19549.1560922
18290.6941903
18118.9100952
19549.1500379
18296.8303107
19555.9385785
19558.911565
19559.2999444
18394.1965479
18375.1824845
19558.9017228
19558.6781224
18380.2189399
19556.061946
19547.2581873
18091.8709491
18250.03802
19549.027331
19554.8375365
18277.2726102
19526.791803
19539.4312451
17568.9237985
17847.173515
19538.7574458
17563.7872119
19527.3184737
19515.114777
19508.9789677
17331.6466541
17126.0611144
19507.0114256
17324.7262419
19515.759864
19526.366435
19537.0894614
17824.7015908
17528.5335957
19538.6341177
19525.1491493
17547.7971144
19515.1437984
19508.6851077
17129.5389634
17312.7040269
19507.8204909
19514.7776345
17319.334617
19506.0581135
19506.6638017
17145.3829424
17118.1888937
19504.1332083
17126.58265
19510.702406
19510.100146
19520.4709282
17167.6745379
17204.6762059
19515.0258323
17148.2010141
19515.6779134
19509.6173384
19507.1222341
17120.4787147
17137.5077567
19506.1799982
19510.4125986
17130.5160287
19513.876539
19518.2979278
17204.5564588
17154.1592619
19518.2521076
19514.0264975
17150.3022055
19524.9754571
19525.1656316
17340.7921683
17266.151517
19520.1522805
17313.8489286
19529.7813578
19528.922433
19533.8265794
17361.2186734
17384.3023821
19531.2045337
17348.1928073
19532.4795685
19527.5478652
19523.2270587
17260.3557309
17300.5336517
19522.7286307
19528.1747453
17305.103251
19531.3236991
19532.5781732
17368.3470516
17318.3661523
19533.0814044
19531.3598457
17335.8590811
19527.9134709
19533.3331997
17461.6295002
17457.5575849
19531.9274893
17446.7286354
19529.2994545
19518.2416004
19524.0939466
17133.343492
17205.5466304
17127.1976792
19523.5456545
19519.2515205
19528.379304
19532.5633637
17442.5097896
17405.3405362
19532.8560529
19528.101057
17418.6073798
19518.4801515
19523.5694186
17203.6657846
17079.1340715
19517.2218785
17094.1514328
19524.4168039
19553.6007789
19559.722115
18273.7006261
18331.740805
19553.4649901
18277.5495131
19557.905391
19548.7596755
19540.909587
18147.7217715
18107.5093502
19546.3861403
19543.0525907
18209.6793921
19552.832226
19556.5092227
18296.8108246
18247.1722704
19553.330115
18270.0575092
19556.5071821
19548.6212222
19546.3768699
18134.015927
18172.4980498
19543.9702829
19549.7653612
18227.8976502
19537.8673095
19537.4836634
18014.3200689
18046.5415512
19536.0531547
19539.261282
18048.6924753
19537.1392289
19536.7916317
18027.4061512
18063.3117971
19536.0010311
19537.2066407
18056.9036998
19539.0287021
19543.3688478
18065.2260904
18072.503464
19540.8422549
19541.0646241
18066.4786897
19537.6879346
19539.104583
18066.6619295
18061.1999486
19537.2643003
19539.6134554
18065.6280901
19539.0206867
19538.0316158
18146.9753825
18087.1495263
19539.4205285
19538.0124159
18117.9018887
19540.0503968
19540.5998735
18191.2277297
18172.7380115
19540.6374408
19540.5811634
18144.8871006
19538.6210663
19539.0430713
18078.0379042
18077.4592065
19537.8422268
19539.5576046
18095.9411303
19539.5675178
19541.100965
18136.796172
18089.6932628
19540.2074544
19540.1499682
18114.1356046
19542.2724633
19541.133874
18290.3272878
18212.3785127
19542.5776157
19540.6395251
18261.0034007
19544.2009606
19548.0788773
18327.3030739
18330.380827
19544.7340516
19547.167991
18301.9568429
19543.1180089
19542.5349593
18174.5749289
18185.3272685
19541.6602288
19544.0704208
18220.4148751
19544.8913945
19546.9757715
18290.1648975
18218.2438694
19546.988325
19545.4664465
18259.9391128
19553.1532522
19551.4205859
18386.7674003
18350.9197111
19554.4188808
19550.210229
18374.540253
19555.3220277
19558.2372992
18394.7994797
18389.5718181
19556.4536394
19557.4522018
18385.2079192
19551.8834586
19548.6763227
18314.9912371
18314.6013413
19549.2829582
19550.8577023
18340.1987718
19554.2649596
19555.1932041
18359.7191034
18333.6152367
19556.2805044
19553.2976013
18359.7841053
19556.1928912
19559.1203054
18344.6578521
18364.4843084
19557.8433109
19557.9601208
18302.7222557
19551.5733821
19545.673125
18210.0033484
17968.7240727
19553.3608817
19543.9866447
18161.0467915
19554.652456
19555.4370475
18330.6865535
18251.3960913
19556.4956553
19553.5835435
18265.9016561
19550.2279141
19542.03893
17947.0662497
18118.3047106
19543.0900862
19549.1232287
18131.8729691
19523.8811607
19535.7574017
17521.3162212
17734.9809301
19524.4178076
19534.1312171
17504.6949968
19515.2882368
19509.2034755
17323.7975745
17160.5229447
19514.7410567
19510.4346072
17318.062474
19523.8127496
19533.2928322
17725.375803
17496.8751885
19533.8869967
19523.5580098
17502.2466378
19515.2679166
19512.2711141
17173.1344797
17322.75265
19510.6207547
19515.8054835
17322.0303124
19512.8063772
19507.7186442
17150.2603964
17151.5251207
19511.0749306
19510.1328582
17154.0335978
19516.2047772
19518.5915148
17164.8706527
17208.01218
19514.3956078
19520.1798995
17167.5553998
19512.731155
19511.4253231
17161.8762245
17162.8995807
19510.0610383
19513.9935188
17161.8910563
19515.9425571
19520.0883271
17209.9313757
17173.6048668
19519.6590887
19516.6756898
17174.004982
19527.8316219
19522.9797404
17288.4446247
17250.5132579
19527.0575224
19524.1203691
17284.7811333
19530.8403303
19530.8938432
17304.8160865
17332.8221321
19529.7604487
19532.0897921
17305.1690135
19526.8558581
19523.7609422
17250.1940671
17289.217536
19523.3406139
19527.5585954
17283.107579
19529.5896496
19531.0592707
17328.8894473
17305.1528459
19530.8569726
19530.0041352
17302.4883702
19526.7129667
19531.1506443
17390.6628731
17413.6801635
19526.6134779
19531.7197695
17381.2130062
19515.3006195
19522.3037606
17080.5769558
17143.9824612
19515.2704114
17065.8269657
19522.9487042
19525.6874209
19530.8929761
17411.0336806
17388.0245386
19530.6657233
19526.2284225
17381.2594213
19514.0757367
19523.2628094
17163.3925179
17085.4722687
19514.8488636
17080.5912632
19522.4908585
19552.6784779
19555.1748322
18236.8291457
18232.3914203
19553.005921
18231.3090398
19554.7165781
19550.3969648
19546.9340086
18178.1675705
18159.6118604
19550.1962317
19547.6435615
18213.4545547
19552.2966724
19553.9107307
18221.0552884
18214.1761763
19552.4715081
18223.9598042
19554.1329534
19550.3740732
19548.3939987
18169.4669419
18173.7830389
19547.9215477
19550.4346332
18212.3879604
19543.0668476
19543.8458563
18085.0268572
18094.6777362
19541.9350864
19544.992263
18094.9794537
19541.7610381
19539.8411727
18066.9626112
18077.3810212
19540.7030336
19540.8517346
18092.5969468
19543.8119831
19546.6004193
18108.6561975
18143.3362937
19545.5487845
19545.2400023
18108.5082016
19542.8976608
19543.3466766
18104.3813024
18121.8957576
19542.1752385
19544.0329371
18111.1060422
19540.8348121
19539.2059476
18077.7195588
18076.7266692
19539.6607764
19540.4451024
18090.4110575
19541.7297
19541.8172053
18086.4560158
18132.9732417
19540.5534961
19542.7849016
18114.2686464
19542.4508451
19543.5163457
18106.0658008
18171.4346756
19541.8236684
19544.203831
18123.5858758
19543.5411888
19546.8579906
18171.7123061
18186.3568347
19545.0271003
19545.5896768
18151.6705423
19545.4914547
19543.3059728
18173.3675013
18151.0427968
19544.8274113
19544.1064045
18173.4948234
19546.9262777
19547.8214276
18199.4626901
18222.2614876
19546.37085
19548.2285777
18198.6407501
19547.6621258
19548.016549
18184.4113578
18238.1012832
19546.4423448
19549.1314311
18199.3614367
19548.8653463
19551.252366
18228.1876519
18241.8218959
19550.0792084