/*--------------------------------*- C++ -*----------------------------------*\
| =========                 |                                                 |
| \\      /  F ield         | OpenFOAM: The Open Source CFD Toolbox           |
|  \\    /   O peration     | Version:  v1906                                 |
|   \\  /    A nd           | Web:      www.OpenFOAM.com                      |
|    \\/     M anipulation  |                                                 |
\*---------------------------------------------------------------------------*/
FoamFile
{
    version     2.0;
    format      ascii;
    class       surfaceScalarField;
    location    "5";
    object      phi;
}
// * * * * * * * * * * * * * * * * * * * * * * * * * * * * * * * * * * * * * //

dimensions      [0 3 -1 0 0 0 0];
oriented        oriented;


internalField   nonuniform List<scalar> 
92311
(
0.202359443662
-0.000129582108031
3.11265230263e-05
-0.202205359098
-5.56289179465e-05
-0.000210184224504
0.202378231216
0.000749158065918
-0.000557615370654
0.202300678894
-0.000220017631002
3.04707845967e-05
-0.202170314287
-7.0231045569e-05
-0.000437211479867
0.20236142593
0.000757158445654
-0.000590620946792
0.202073590966
-6.62048015105e-05
-7.27576274057e-05
6.45849626574e-05
-0.20206343672
-0.000100670683646
-2.32716521969e-05
-3.17368691513e-05
-0.000176251068656
-0.000263023787016
-0.000226540565572
0.202269334885
0.000812615082117
-0.000640925377426
-0.000138699561266
0.0505383144104
-1.83375714058e-05
-7.12091546623e-06
-1.78302198618e-05
-7.81913958748e-06
-2.80207483452e-05
-0.0505674082949
4.20150184733e-05
-0.0504954894809
0.0504449829702
-4.50002017514e-05
-3.30150852231e-05
-3.35021890614e-05
-4.30595957491e-05
0.000145925337996
-0.000117080632438
2.19190812156e-06
0.0254741524506
1.23812505337e-06
-4.09467691875e-06
-7.89365004461e-06
0.000112326187913
-0.0282740904334
0.00353280733929
-0.0008367100895
0.00778226018757
0.00451143828866
0.0067898288689
-0.0148914414223
8.52087210373e-05
0.000100062862023
6.10714141866e-05
7.77336334759e-05
-0.00451610683727
-0.00791331172759
-0.0077974822436
-0.00780527692055
-0.00694109140795
0.00137998847946
0.012360004489
0.0051246779615
-0.00487303101574
-1.30810463793e-05
-1.17983605685e-05
-1.14783628013e-05
-1.41327665758e-05
6.38171974874e-05
-4.32589761962e-05
1.4971377501e-05
0.0124129019212
2.54677363883e-05
-2.22089348617e-05
-0.0124289415537
0.0123806489082
-1.37773314232e-05
8.8155829403e-06
-0.0123916956858
1.16708878738e-05
4.34933180266e-06
-0.000194456475759
-9.51430528639e-05
0.0504935241984
-9.09152111962e-05
-7.08620779698e-05
-6.84550952302e-05
0.00020824859845
-9.55831050858e-05
0.0504193979226
-8.94998156117e-05
-7.13034752739e-05
-6.39359598582e-05
-0.0503615526259
-0.000158497039796
-2.94911947839e-05
2.28224415228e-05
0.0123693624063
3.60057574245e-06
1.43276179224e-05
-6.44710626249e-05
0.0125877883561
6.43457100438e-05
-0.000106543470897
-0.0125762488323
0.0125795889016
-5.14524546481e-05
-0.000122889582672
-0.0125651841137
-0.000119880707984
0.202719222176
-0.00080406412672
0.000656240145225
-0.202451517616
0.202374047547
-0.000270433240752
0.00122562836316
-0.000950459906467
-0.000202298901464
0.202277934905
0.00144872916392
-0.00114977135868
-0.000180236263796
0.202727362243
-0.000820003546937
0.000675865698702
-0.202522781072
0.202464917098
-0.000668419990315
0.0012458316319
-0.00095082531701
-0.000481977277059
0.202399904661
0.00150020162028
-0.00115503823752
-0.000106333952015
-6.38545853606e-05
-4.18864027971e-05
-0.00069419284068
0.202624867308
0.000664800152993
-0.2024847737
-7.88184185081e-05
-0.00032703645913
-0.000394974467498
-0.000301487090454
-0.000372383798979
0.202683229576
0.00142035648008
-0.00110667514285
0.0507114995423
-4.82246026467e-05
-4.74429497115e-05
-4.66360151161e-05
-4.86633072987e-05
-0.000201236867746
-0.0506410350812
0.000215395306203
0.0506259848566
-0.00025605955665
-0.000106014063398
-0.000103302254102
-0.000129991563218
-0.000125758838486
0.000261733267146
0.0066048158832
0.00610433210442
0.000979878847298
0.000110688106592
0.000124767138622
0.000130067981101
0.000144981534564
-0.00641702073326
-0.00729975206619
-0.00591209499167
-0.00602265958101
0.00125119768085
0.00333190561928
-0.00452574219657
0.00452710352679
-0.00636365518098
-0.00143599316033
-0.00146655690729
0.000310769828927
0.000682615513818
0.0209599665352
-0.00382156861761
0.0341556558368
0.000121247978989
-3.37924805061e-05
-2.32849519454e-05
-2.94537088658e-05
-2.62174413154e-05
0.0507499257553
-0.000110754890984
-2.74346635719e-05
-1.75511999838e-05
-2.63876681949e-05
-1.90115558615e-05
0.0506510125028
0.000131693965037
-0.0506128788157
-3.65739343865e-05
6.62045440523e-05
0.0124821718519
2.80951156913e-05
-4.14595278835e-05
-0.0124985048536
-3.10454348318e-05
3.45374229345e-05
-0.0124535783818
-9.33344299626e-06
1.03593594193e-05
0.0124489823604
-4.08566592132e-05
0.012664275396
-3.91796514585e-05
4.51172438093e-05
-0.0126567865974
-0.00031632684127
-0.000129917243026
-0.000138665396425
-0.000126931130035
-0.000142139421505
0.0507658078665
0.000319189308109
0.0505653186501
-0.000107041023986
-0.000135481765095
-0.000103798435959
-0.00013225727265
-0.000224814475448
-0.00013321556679
-0.000150066710235
-0.000129912493874
-0.000141634866812
0.0507226865912
-0.000291553836874
-7.64876065518e-05
7.35809618851e-05
-0.000121822368545
0.0126066268886
-0.000137291370721
0.000159829407061
-0.0122954086296
-2.09957747919e-05
0.0122748866799
1.90001766252e-05
-6.80554611379e-05
-0.000136047258082
0.0126003069731
-0.0126190381476
-0.000178747528574
0.0126551506852
8.55551051405e-05
-7.59993830575e-05
0.021053530396
6.53815576118e-06
3.43629589117e-06
-4.23121658655e-06
-0.000439654602627
0.000112629207087
0.00472854293047
0.00709134499211
0.000107551172536
9.37675404471e-05
5.30844788149e-05
7.88644239524e-05
0.00851543409667
0.0052297735646
-0.0166581456007
-0.00358180760344
-0.000547807069868
-0.00249503163211
0.0059228011044
-0.00313462623169
-0.00190661547761
0.000443321133285
0.00647595520059
3.93894377698e-05
2.61182264379e-05
4.37538765879e-05
-0.00243270396398
0.00197988834927
0.00151517223163
-0.00740455459928
0.00228758661717
1.62264206483e-05
0.0126422015487
-1.21873857806e-05
-0.0126497242968
-0.0126308699231
-1.48787485225e-06
-1.94547576019e-06
0.0126231598583
4.01816346236e-06
2.42448215104e-05
4.10541992323e-06
0.0124035354375
-1.77677072504e-05
1.42091601508e-05
0.0124038054649
-0.0124210198724
2.43065799888e-05
-0.0126351311239
1.67772698614e-05
0.0123944639755
2.42635137175e-05
0.0126345869643
1.92163177539e-06
0.012609155272
-1.10366813713e-06
8.90201249828e-06
-6.9194048103e-06
-2.29456446723e-05
-0.0126206966739
0.0126118224793
2.88606410742e-05
1.85673781351e-05
5.87254668164e-06
-6.11686125201e-06
4.34553387268e-06
-0.0123825131903
0.0123697419531
2.35435989471e-05
0.0126000973096
-2.10293096771e-05
2.51201268418e-05
1.44896024705e-05
-0.0125838317486
-4.57432581465e-05
4.5464130983e-05
0.0125814030512
-4.22982242964e-05
-3.32728391535e-05
0.0125969221307
3.79337037715e-05
-4.76230649502e-06
3.9917247068e-05
0.0123512465984
2.23528357182e-05
2.1772812915e-05
0.0123592702003
1.83805457929e-05
-2.86938184783e-05
0.0123401164323
1.22845902733e-05
0.0125929750648
4.63025839695e-05
-9.63185529203e-05
-0.0125869978514
0.012596229378
6.06600769456e-05
-1.73699405219e-05
-0.0123415536307
0.0123222674001
2.54977645228e-05
-0.012334715583
-4.83554092719e-06
0.012315740332
-6.80495535093e-05
5.61840425413e-05
-5.36448219457e-05
-1.57188040607e-05
6.05980579197e-05
2.58957401585e-05
-6.74019464433e-07
5.43757398165e-05
-0.000112603937682
-0.0125491181283
0.0125639967562
-4.31897370705e-05
-1.89989317345e-06
-0.0123227761903
0.0123046080407
-0.0123140855761
0.0122928663765
4.75696698628e-07
-3.73451111446e-05
-8.32436805132e-05
-0.0125694202462
6.38046447979e-05
-2.00514674436e-06
-0.0123227181801
-3.60316527945e-08
-0.0125555862739
-3.08920464277e-05
-0.0123299634066
0.00507141004386
-0.002728425635
4.35186989874e-05
2.14202890736e-05
3.45675466421e-05
4.1688452034e-05
0.027902544569
-0.0309312676649
0.000544747151215
-0.00417644121584
0.008437717807
0.00162368814112
-0.00810397945263
0.0280482005383
0.00349630803729
3.31590679911e-05
4.17801177243e-05
4.59739611686e-05
-0.00539672485154
0.00374363824617
-0.0300478704183
0.00399185532688
3.84747620071e-05
4.00434452921e-05
3.99939746228e-05
0.0251700936163
-0.00398998874901
0.00570080551901
-0.00565284134809
-0.00700838832099
0.00454579614497
-0.00462960669887
0.00413978295484
0.00624899223194
0.00134772837604
0.000137792399997
0.000148379367245
0.000174852731673
0.000154608903204
0.00690809362183
-0.00534765407991
-0.00140844103995
0.0110350677901
-0.00312979127149
0.000514723488578
0.00450859831105
-0.00718331924478
0.000180554213948
0.000186794824416
0.000159726164946
0.000161880347924
-0.00420634848168
0.00753893864726
-0.00608923158143
-0.00206736495284
0.0115641043478
0.00431239932771
0.000138508944882
0.000147482257575
0.000145688500137
-0.00421453249478
-0.0068709632988
-0.00395982549923
-0.000284207776726
-3.35503692743e-05
-0.0126681293549
-6.64282880963e-05
0.0126780143635
4.18696003557e-05
0.0126760357915
4.2973740436e-05
-3.57241802548e-05
-0.0126644340736
6.45984108879e-05
1.25586129665e-05
0.0124604486901
-2.21745862541e-05
6.98009211472e-05
0.0124703094263
-0.0124832050991
1.30715897006e-05
0.0126858666282
-2.52579108858e-05
-0.0126560327092
5.21548838112e-05
0.0124551925573
7.37099820707e-06
-2.46140716744e-05
0.0126876147658
-4.98279366712e-05
3.10949618308e-05
-0.0126967773367
1.54812613107e-05
-9.45591587369e-06
0.0127020816828
4.77617191325e-05
1.99303705725e-06
-4.43408333097e-06
3.40636799661e-05
-0.0124428780634
-8.43563891797e-07
0.0124402653925
-1.70281866534e-05
2.04557855352e-05
0.0126907304893
4.66951001598e-06
0.012442038504
-1.55876905346e-05
2.95895542294e-05
-0.0124534525886
2.00253092697e-05
-1.64078093533e-05
0.0124310489618
2.88500427925e-05
-2.57192089423e-05
0.0126652809471
2.73090565341e-05
0.0126773834031
-4.28813797103e-05
-0.0126686606361
2.49872493259e-05
-0.0124433933223
0.0124356005363
0.0126781346193
-0.0124553158938
-0.000113157323964
0.0126132845317
6.64901307169e-05
-2.41980711134e-05
0.0123175933029
2.64158121666e-05
0.0123131712779
-1.86097655393e-05
7.7871543693e-05
-0.000153420877729
0.0126342452935
-8.20091039803e-05
0.000145524267966
-2.33410720987e-05
0.0123035993066
2.17972258885e-05
0.012639962754
7.11245811045e-05
0.0122998556976
-1.83806436813e-05
8.22556955239e-05
0.0126628081036
-0.000151852309164
-8.87898439724e-05
-0.0126678895431
-8.67888524843e-05
0.0126955822793
8.02575836764e-05
0.000147146394029
-2.3357251765e-05
2.30171107987e-05
0.000163627817296
-0.0122926024451
-1.92227268036e-05
0.0122747016073
7.45962609512e-05
-9.40911090703e-05
0.0126916042184
-2.2093198158e-05
-0.0125868009342
-0.00017746277834
7.62463705074e-05
-6.65334840372e-05
-0.000136761528407
-5.75622155547e-05
-1.90009989374e-05
0.0123067886805
0.012300698488
-1.52473088772e-05
1.84919821974e-05
0.0122936315659
-1.41975170541e-05
-0.000166617583982
0.012629239667
0.0122947919883
0.012291229706
2.10909995537e-05
-1.57034484452e-05
0.000192954039124
1.80971765976e-05
0.0122783154464
-1.07521667125e-05
8.94499618595e-05
0.0126886512896
-7.99458916657e-05
0.0126603588885
-0.000164179856679
0.000175839214611
-0.0122914131076
0.0122741380687
0.0126899165965
-0.000333502671108
-0.000299078765929
-0.000179929212696
0.00158789332166
0.202915280833
-0.000250265339129
-0.00123917957126
-0.000347554481327
-0.000111317476687
-0.000116003582812
-0.000108837494656
-0.00011952636433
0.000346565900482
0.0508889291739
0.000137838567078
0.00675981934958
0.00168584101836
0.000123044285079
0.000145046764065
0.000128081565238
-0.00655480258828
-0.00663888716325
0.00758778525039
0.00692424512199
0.00979625056678
0.0331904327547
0.0230457461962
0.0102113909223
0.0490992261244
3.01531983976e-06
-8.98636411659e-06
-1.29742158745e-05
7.23457098969e-06
4.31417412295e-05
-2.02484908465e-05
0.0506118330891
-5.59109414877e-06
4.47661376077e-06
-8.02586464868e-06
0.0124179648607
0.0508500018231
-0.000104989433527
-0.000123763421476
-0.000116667095573
-0.000113880972447
-0.000315097816506
0.0508445842698
-6.79154583444e-05
-3.93481699263e-05
-3.61382756218e-05
-7.44191429998e-05
0.000382817826766
-0.000340006486462
0.00014257178384
0.0122663416638
-1.38062587102e-05
1.76136841476e-05
-0.00017835848619
0.000173372076424
6.61089859552e-06
0.0122767414874
4.84236864052e-07
0.0122654515813
-2.65140517123e-05
2.35226336194e-05
-3.14261746157e-05
-0.0122679494555
3.65584642751e-05
0.0507985605413
2.73045293686e-05
-9.35825196665e-06
-9.77366508787e-06
2.701562308e-05
-2.56009716947e-05
0.00038348363559
-0.000347310447594
4.15631439067e-05
5.07104982776e-05
5.05908882586e-05
3.89376495133e-05
-7.86049000687e-05
0.000408793839158
0.0506599708886
-0.000373578742101
2.68687635597e-05
5.35788951166e-06
-3.99217095358e-05
0.0122278862483
4.51716827285e-05
8.44137966512e-05
-7.03135414347e-05
-5.71160769148e-05
-0.0121771548368
0.012151162157
6.91219489717e-05
2.33670335609e-05
-2.88583902019e-06
7.50762648283e-06
-0.00170309677661
0.0245818989495
0.00510341465596
-0.00731966842164
0.00175522258826
0.000159150795492
0.000150014968819
0.000133753071022
0.00749605980591
-0.000317835344164
-0.00872123416013
3.90983854576e-05
8.65228601961e-05
8.57764341472e-05
-0.00700812040047
0.00848891131267
0.00380207006301
0.0043524334173
-0.00283963087633
-0.00175906052227
0.0121713262608
-0.00244850682166
-0.000502784519951
0.0106959421247
-0.00886041885044
-1.69148178104e-05
-6.24853035729e-05
-5.65590881266e-05
-0.00812552666756
-0.00180736799246
0.0102342965372
-7.62301381423e-05
-7.47575130049e-05
-7.94267281813e-05
-0.0087535191509
-0.00451361683522
-0.0061636980419
0.0108841675222
-0.0126718692113
1.07054483266e-05
-2.71365646588e-06
4.82355003128e-06
0.0126620708186
-1.09331636161e-05
0.012659561294
1.03411169534e-05
0.0124290500821
1.15394048717e-05
2.48109914257e-09
-1.79457209441e-05
0.0124152859363
-7.32609958062e-06
1.98391918346e-05
0.0124275358318
0.012648059249
8.7759221404e-05
-0.0127259616541
-0.00012510007583
-9.34941837697e-05
0.01274543779
0.0127278735197
-8.88243330027e-05
8.31008778393e-05
0.000124501159882
-1.10610671664e-05
1.70048552586e-05
0.012258822258
0.000148475218019
0.0122679029578
-1.04722632325e-05
8.45671129106e-05
0.0127467491701
-9.42734997501e-05
-3.84196645978e-06
0.0122636629052
-0.0127259248834
-0.000130987858761
-8.67381936312e-05
0.0127451657308
8.84513297629e-05
0.0127284675846
-7.85960127261e-05
0.00015855684289
0.0122707450966
-2.10850197094e-06
0.000141836195578
0.0122771264381
1.03939155309e-05
0.0122673231248
0.0127481141656
-7.83471399156e-05
0.0127534570798
-8.56857619423e-05
-8.18846201899e-05
9.13034682635e-05
8.27681048146e-05
-0.0127559720179
0.0127328473147
-7.58072770344e-05
2.76986667159e-05
-0.0122598606417
0.0122607246617
-2.09279678542e-05
-1.81561377613e-05
8.9111057702e-05
2.48895756728e-05
0.0127348636978
9.28304920411e-05
-1.05945152923e-05
-7.51339291746e-05
-0.0127240904694
4.54501225657e-05
-8.94558324592e-05
0.0126983309554
9.70543769631e-05
8.47427496658e-05
0.0127198553538
-7.59538271e-05
1.03919333091e-05
0.0122235962988
-3.02410893038e-05
-4.9277141709e-05
-4.41522373851e-05
0.0122035384678
5.50199219899e-05
9.57935911154e-05
0.0122004738468
-3.74497261601e-05
0.012694602904
-8.17319526226e-05
0.0126709502265
6.12273820784e-05
-9.28865021864e-05
0.000100406754954
9.78670462159e-05
-0.0126678976241
0.0126423199624
-9.18901572364e-05
-6.77474802658e-05
-0.0121692711324
-4.05246616659e-05
0.0121440975694
-5.08703539886e-05
-5.89160832415e-05
6.13278697972e-05
0.000106012782492
0.0126455385918
-3.79426531625e-05
-8.62159876179e-05
-0.000486888613372
-0.0491640742239
0.0491116049603
0.000575306727138
-3.53720202613e-05
5.20728054732e-06
-1.61341467814e-05
-1.99573188076e-05
3.08300402235e-05
-0.000639503524817
0.0497403041933
-0.000102651279485
-8.11855970994e-05
-9.48377587204e-05
-8.98257991342e-05
0.000229453394052
-0.0495961304579
0.00063435988617
-0.00107380907702
-0.0499020384494
0.0501280450135
0.000891643076853
-1.84126319396e-05
-4.51366087653e-05
-2.5164045867e-05
-5.20339169037e-05
9.69056500236e-05
-0.000733345375573
-3.02853930708e-05
-4.3919053235e-05
-2.79546161244e-05
-4.02622402149e-05
0.00012991315529
0.0502129954482
0.000617851309043
-0.0500849922659
2.61196362785e-05
-0.00552698808572
-0.0355122555758
0.03201711912
0.00778708933824
0.000972321194312
6.00580947626e-05
6.38359589752e-05
9.93716774428e-05
3.28367559363e-05
-0.0293200480885
0.028424228023
0.00368784913468
-0.000297238036662
4.36339580483e-05
8.73776767847e-05
4.88072239233e-05
-0.00270686802471
0.000147950084104
-0.00698241216496
0.0228605927251
0.00307158863888
0.000146768991905
0.000176448251087
0.000172492219098
-0.0242986856182
0.00470637190573
2.11663248578e-06
-0.00399729408934
-0.0230219704032
0.0238651353294
0.00437991038023
-0.00126543979162
9.29723518062e-06
3.24130644203e-05
-4.37757516009e-06
2.14935391828e-05
-0.00442742777558
9.34597067598e-06
4.84107575653e-05
4.11428747816e-05
0.0249630989781
0.00312304630248
-2.73232890353e-05
-0.0237517998638
0.0841950693706
-0.0177331722435
0.009682142553
0.00348746340405
0.00746628747609
0.00284876941926
0.00130806677098
-0.0367286568289
-0.0184155035446
-0.00842965432541
-0.00842482257505
-0.00794696054604
-0.00838661834245
-2.27025938415e-05
-0.00409827347928
0.0787317621356
-0.00563150806335
0.00755296243869
0.00594656130635
0.00388375127034
0.00490209025112
-0.028810539668
-0.00858165928382
-0.00442153983605
-0.00446188155218
-0.00415208737192
-0.00330546155966
0.00823107614082
0.0981876343996
0.00140826565409
0.00347256036142
0.00332846075965
-0.0394544317081
0.00148589401114
0.000755845662313
-0.00389330484624
-0.00240484854945
-0.00422069907017
-0.00296995191828
0.0388612039664
-0.0134349142956
0.000181403195978
4.62471417967e-05
4.3429767806e-05
4.76879566038e-05
3.92053837928e-05
0.0488228776379
-2.14432120118e-06
-8.06810940335e-05
-0.04909801918
0.0489044836822
0.000277869979878
4.8780945185e-05
4.16577494761e-05
4.66286439588e-05
4.28921229552e-05
-2.28825461666e-05
-0.0491579480142
2.96984982253e-05
-5.97546023531e-05
-0.0122199522689
-1.20540002512e-06
0.0122159857186
3.51190322238e-05
0.0122140758794
8.95785839356e-05
3.61265790624e-05
-5.05955924758e-05
-6.66366041685e-05
-0.0122232022991
4.89100586763e-05
4.78215961633e-05
5.4359417301e-05
3.31794567834e-05
-0.000305022553467
0.0122186417432
0.012183912942
0.0120840609507
0.0121537056211
-0.000101758966383
9.21969156598e-05
7.8671666553e-06
-3.7494194016e-05
-6.90541321202e-05
0.0122208171415
0.000339887017232
1.0923674392e-05
2.05970520358e-05
2.44920592464e-05
-5.49721960462e-06
1.12764200523e-05
-0.0492878688982
0.0493681333905
-1.69510910052e-05
-5.5279099974e-05
-3.69121753687e-05
-3.33952872634e-05
6.80850259222e-05
-0.0494042429545
0.0004504491699
0.0122160988704
2.24645252629e-05
-2.4431105984e-05
-0.0122243297932
9.98889326369e-05
0.012231691402
-8.27584009114e-05
8.81045916654e-05
-9.75503831975e-05
-0.012226733769
8.78013160211e-05
0.000889357595712
-3.77039614395e-05
-1.34988415908e-05
-2.36056257225e-05
-2.48762308762e-05
0.0491368352233
-0.000196420759994
-0.000160815983654
-0.00019941453576
-0.000166086698768
-3.46070178991e-05
-1.98807009281e-05
-2.26828413122e-05
-1.47905187351e-05
0.0494192965438
-6.10335794753e-05
-6.23857284209e-05
-4.58518061866e-05
-7.59039837896e-05
0.000130318052049
0.0496422665235
0.000844312436021
-5.86322412224e-05
-5.24299164729e-05
-4.44570116355e-05
-7.22065297388e-05
5.03578582611e-05
-1.01187899202e-05
0.0122355872305
0.000108240098458
0.0123085836262
-8.6309636425e-05
4.57474504582e-05
-0.012279699824
0.000150394621362
-0.000138610762863
9.99184471758e-05
-0.000127477948039
0.000103096159146
-0.000108284877981
0.0122641882778
0.0123486070543
0.000146526718632
-9.5269512199e-05
6.83427032874e-05
-0.000151673590004
-0.0123163382358
0.0498841810517
-1.82583956737e-05
-3.99707106935e-05
-3.47769501295e-05
-1.77810563331e-05
-0.00115433014501
-5.01146172903e-05
0.00126749028402
7.56695330947e-06
4.99152966183e-06
1.30399066241e-06
7.09039551064e-06
0.0504239829032
-0.000219271795486
-0.00160855323071
3.10122260059e-05
0.0123100601758
0.00015450473245
-0.00015387877623
-7.06535062956e-05
2.58946712809e-05
-0.0123657528844
0.000206708421368
0.0124162307957
-0.000212165547674
0.000161264662248
-2.50936695881e-05
3.8414647422e-05
-0.000173445905189
0.012347782326
0.000179516534905
-1.90398882862e-05
1.16118276947e-05
-0.000192928963732
-0.0123884518166
0.0124094970507
0.000772374903812
-8.05630131456e-05
-5.5657934031e-05
-7.80648762417e-05
-5.77790798389e-05
0.000182387739513
0.05003858911
-7.73325772191e-05
-5.40655698192e-05
-5.55562570766e-05
-7.35880085205e-05
0.000198448778642
-0.049893554098
0.000689470955531
0.000115355765842
0.0122810117868
9.36721167319e-05
-0.0122420764771
0.012365217017
-7.87550989719e-05
5.2991584108e-05
-0.0123329598068
0.000140316482534
0.0123831602766
-5.61959599811e-05
4.02996693986e-05
-0.000124224668736
-0.0123583652407
0.000115406853126
0.000983971485573
4.54632329291e-06
1.8515264656e-06
-6.75197887548e-06
8.21793934571e-06
0.0503904935363
1.31889361045e-05
0.050210821798
-9.0090722758e-06
-3.86501998523e-05
-4.4316677929e-05
-1.19364537382e-05
8.98774767278e-05
1.18099208691e-05
7.96171483662e-06
-4.2306655301e-07
1.53071118414e-05
0.0503656231953
0.000755293911453
3.91563010207e-05
2.6449572948e-05
0.0123580991952
0.000144723388167
-1.00241393208e-06
-8.35476084134e-06
-0.0123888475018
0.000170240473503
0.0124077188909
0.000113057545104
1.21500370897e-05
1.66113486334e-05
-0.000134057952726
0.0123755795795
0.000133373248487
1.06034677054e-05
-2.13094778397e-05
-0.000141571651502
-0.0123941053863
0.0124130587775
2.58662101245e-05
0.0123824081032
0.000107533826953
-0.0123812079212
4.05704118299e-06
-0.0124065107361
0.0124230578333
-1.22919954227e-05
0.000125043225407
0.000283026399763
-3.16189497847e-05
-3.90746827982e-05
-4.25151193425e-05
0.0381782210386
0.00476419886919
-0.0369372839499
-0.00614605095616
0.0386091574486
0.00583331726864
-3.60532413892e-05
-3.90098600931e-05
-3.90320489592e-05
-0.0372118137353
-0.00679770716879
-0.00239708990155
-1.81773621585e-05
2.81029208253e-05
3.28017602896e-06
-0.00104250020461
0.0365164986485
0.0178332201381
-0.000307115280251
0.00479256561955
-0.00123190530016
-0.0113974516571
-0.00030613169242
0.0227072709764
0.000321582273935
-0.00140790114142
0.0200341941368
-0.0018605616492
-0.0134248237745
0.0242365379673
-0.00151187998841
-0.000151707347151
0.0155549442949
-0.000277847409543
0.000102626612736
-0.00110845406027
-0.000178438739489
0.00829845350481
0.000135487482831
-0.0011282698762
0.016655869946
-0.0011151862215
0.000461201109625
-0.000935524236768
0.00903107724073
-3.85117877999e-05
0.0096081812299
-3.10639152139e-05
6.04070331922e-06
-1.64949520367e-05
-0.00341859185483
-0.035805201578
0.0289865568348
4.73752429696e-05
4.11612052731e-05
2.11963673886e-05
-0.0312318966475
0.00264244576293
0.00901659775755
0.00532924962932
0.00102564416394
0.00010780235112
8.92886828214e-05
0.000103413167417
-0.00404682423196
0.0262691633986
0.00304117172893
9.98603409361e-05
0.00013968333325
0.000116261035905
0.000832233496901
0.0253038007463
0.00502671413949
8.9964681132e-05
0.000139696785586
0.000109466310616
0.020538748672
-0.000722180579657
-0.0131413589334
0.000837060889322
0.0251179780527
0.0201685467182
0.000641611967157
-0.0145898270802
0.0245862329278
0.00216790922007
0.00168381794607
-0.000123986148691
6.268286719e-05
4.9954726983e-05
2.12664563186e-05
0.0282898937257
-0.00164540898347
0.0253838296995
-0.000574445099288
8.34241562798e-05
3.05007412504e-05
4.54604174633e-05
-0.00103287585178
0.0019816296682
2.97062782959e-05
3.55586464922e-05
6.11698108588e-06
0.0260281764557
0.0180875223049
0.0011679852406
0.00171136029819
0.0108150386097
0.0185836046042
0.00245107902728
0.00366279506009
0.0122993545983
0.00409347472424
0.000397817732515
0.000131621987411
6.33741146936e-05
0.0001011227435
0.00052516614526
0.0226467223759
5.20270382797e-05
0.000100031807458
9.21001594541e-05
-0.0220675205937
0.00268895733236
0.0191299314106
-0.014172720402
0.000191115861464
0.00105094457198
0.0241169395213
0.0258591825073
-0.0194593433976
-0.00149019210408
0.00313587872578
-0.00244315100476
9.95057999587e-06
-1.82081801316e-05
-3.86097099397e-05
0.0251997940843
0.0239271084113
-0.00130708583657
2.09045533264e-05
-1.38289379424e-05
-1.63134962606e-05
-0.00247065943872
-3.8582715339e-05
-1.09830050415e-05
-5.25296238801e-05
0.0255473724091
0.0040987967748
0.0196106302747
0.0017834336715
0.00298225555022
0.0154531179562
0.0230321896679
-0.000926465516118
0.0215872022468
-0.00101346441958
0.0122626448011
7.38104311378e-05
-3.44527799136e-05
3.67991554539e-05
-0.012292542843
4.08836857156e-05
-0.0122599686801
0.0122298159817
-2.70544511845e-05
-1.5499012998e-06
-6.21638138319e-05
3.56957699781e-05
-0.0122235050914
-6.71108298673e-05
-0.0122218298687
3.24754764413e-05
0.0122161198851
4.93336210656e-05
0.0122347730015
3.19147714608e-05
-0.0122239440221
-2.7733556863e-05
-0.0122896378597
0.0122695890172
4.09104213812e-05
7.31755056955e-05
-0.0122980875235
-5.6640960574e-05
-0.0122828847242
0.0122659201007
6.45121275357e-05
-6.18003490972e-05
-0.0122221647424
0.0122135594006
-6.21989799931e-05
-6.66388571254e-05
9.01961590147e-05
-0.0122235296256
0.0122470316977
4.59192409208e-05
-0.0123072415667
-0.01222267735
-0.0122344984966
9.5786776299e-05
3.35820864543e-05
-7.39756884505e-05
0.0122280264239
-6.95279865154e-05
0.0122580556397
8.78261293157e-05
-5.1964720271e-05
0.0122123053764
-3.39761343595e-05
-1.44936144941e-05
-7.18885447174e-05
0.000101285663503
0.0122339601901
-5.46678418556e-05
0.000115776672429
0.0122567172389
-3.70880686749e-05
0.0122143679656
-4.7653714142e-05
0.0123230386275
1.45481396566e-05
5.57680083705e-05
-0.0123347783911
-0.0123016649413
6.84998916813e-05
0.0122938144482
-3.96884924209e-05
9.95395374928e-05
-0.0122249759776
3.86259716981e-06
-0.0122198611277
0.000103575601925
0.0122183750566
-0.0123187627531
7.25666323763e-05
0.0123170646897
9.82574413895e-05
-0.0122204332781
0.0123407830995
6.42389920792e-05
-1.53843312673e-05
-0.0123509476066
-8.4101353915e-05
-0.0123634539278
0.0123754846873
0.000105063453826
5.30097691153e-05
-0.0122271133017
0.0122279297829
5.14885357693e-05
-9.55052539337e-05
-0.0122220248399
8.05138894116e-05
0.0123453239033
-0.012367097572
8.57472987949e-05
-0.0122188126576
-0.000122047848296
-0.0123189509799
-6.83572087285e-05
0.0123375938343
0.0001366109977
0.0122865352437
9.00169300508e-05
2.94595232653e-05
0.000117826128781
0.0122502068465
3.26849264833e-05
0.0122450322603
0.00011317537944
0.0122935454806
0.000100844628013
0.0122675671092
0.000126662416057
-0.000164689679005
0.0123644176444
-7.88241016044e-05
0.000178972318663
-0.0123147313463
0.000204326635524
0.0123319064404
-0.000189248237245
6.13253950933e-05
0.000134485468926
-0.000117547108062
5.98338676685e-05
-0.0122874496072
0.000155003761482
0.0123140606205
-0.000147968372212
0.000222697501153
0.0123815463746
0.000138923749734
-0.0123583052771
0.000149428909184
-0.000100229706942
0.0123846062311
-0.000114023643696
0.0123967147478
0.000133552390639
7.20129227887e-05
0.0122596491304
0.000119528876691
-0.000120051969396
0.012289384415
0.000114932665884
0.012425295545
0.000164854301156
0.0122819424789
0.0124112851351
0.000187785114892
-9.39408911767e-05
-0.000229901877254
-0.0124565010437
0.0124697247991
0.000232718905208
6.8414148471e-05
-0.0123025636484
0.0123282705696
0.000115412330885
-0.00013420765917
0.00013145883261
0.0124284715562
0.000199956297704
-0.000297878287964
-0.0123998571701
-2.41149250827e-05
0.012420321822
0.000308980720903
-7.6162732395e-06
0.0123463880289
0.000248548280144
5.94958297845e-06
-0.000237759302098
1.70783752024e-05
0.000179944831712
0.0123328222345
-0.000176418957416
5.74703785371e-05
0.0123330021837
0.000166901443171
0.0123700506844
-1.69944996208e-05
-0.000287708747653
0.000266352684909
2.13592648543e-05
0.0123544122917
0.00018265132729
-0.000342104101919
-9.57125316993e-06
0.0124748269837
0.00034873967514
-5.20244454053e-05
-0.0124420801835
0.000373519590583
0.0125323308327
-0.00036777606467
-7.00954253348e-05
2.14768519234e-05
0.000201521770204
-0.000193537941713
-0.0123704022737
1.58350815956e-05
0.000206043710047
0.0124060309419
-0.000329693679586
-6.30140727364e-05
0.000196315174931
0.000380593023323
0.0125432233827
-5.95282310991e-05
-0.0124458790404
0.000299412218214
-2.99249159622e-05
0.0124667917475
-0.000271894672248
0.0124771010232
0.000263193565006
5.76061189454e-05
0.012348882984
2.18766676366e-05
-0.00017867170652
0.0123623215145
0.000172467105895
0.0124943153248
0.000286196429892
0.0123670648983
0.000327203492087
-8.33200887209e-06
0.0125039570846
-0.012525904214
-0.000348191072412
0.000324068037148
0.0125666883406
-0.0123796815427
1.46731637854e-05
0.0124084371379
1.2455966538e-05
-0.000180805199985
0.000177467845848
0.000309144763783
0.0125579924658
-0.00016905722677
-0.0124607107264
-0.000136248284871
0.0124911878904
0.000172199852365
0.0124317142126
0.000139744937052
-0.0124035593925
0.000127692895792
0.000107966856886
0.0123071253705
0.000134339794791
0.0122921338147
-0.0122525926021
9.61846387066e-05
0.0124605929395
-0.0124274112567
0.000151207332594
0.0123256203575
0.000111117616233
-0.000199803831467
0.012513552973
-9.22091469119e-05
0.000189217112073
-0.0124911673235
0.000221192730696
0.0125001256114
0.00010842722727
0.000128788249778
4.52748811361e-05
-0.0123413565376
0.000132752012577
0.0123667879053
0.000204564442709
0.0125177772418
0.000122416660653
0.0125276892875
0.000177605954556
-8.32102097493e-05
-0.0125101448806
-0.000185662325309
-0.0125346108022
0.0125368287013
0.000169602690286
3.82164282573e-05
-0.012352561061
0.0123746484085
8.39147919801e-05
-0.000117918837755
-0.0123390649299
0.000114657029675