/*--------------------------------*- C++ -*----------------------------------*\
| =========                 |                                                 |
| \\      /  F ield         | OpenFOAM: The Open Source CFD Toolbox           |
|  \\    /   O peration     | Version:  v1906                                 |
|   \\  /    A nd           | Web:      www.OpenFOAM.com                      |
|    \\/     M anipulation  |                                                 |
\*---------------------------------------------------------------------------*/
FoamFile
{
    version     2.0;
    format      ascii;
    class       volVectorField;
    location    "5";
    object      U;
}
// * * * * * * * * * * * * * * * * * * * * * * * * * * * * * * * * * * * * * //

dimensions      [0 1 -1 0 0 0 0];


internalField   nonuniform List<vector> 
28582
(
(0.809753131532 -0.000185605779784 -0.000290308945477)
(0.810318509053 -0.00242226347484 -0.000476533570657)
(0.809602173383 -0.000287464690985 -0.00081437556072)
(0.810149744706 -0.00255781850921 -0.00126936743048)
(0.808889018754 -0.00025816833457 -0.00105592623216)
(0.809660743257 -0.00277844917193 -0.00269509768296)
(0.80889591556 0.00047617008808 -0.000812981334964)
(0.808052650255 -0.002138225376 -0.00287532172535)
(0.436110852579 -0.0179296167307 0.00121984938459)
(0.18279213624 0.0716856310762 -0.00809424756239)
(-0.0796501712893 -0.0272684551828 0.0624935315627)
(0.808382048984 -0.000905032346513 -0.00108898741081)
(0.79478191324 0.00188842527233 -0.000778325230061)
(0.79271653127 0.000305784604566 -9.43568583327e-05)
(0.808009287754 -0.00323521542454 -0.00534932783445)
(0.806803466564 -0.00286087327473 -0.00468236580358)
(0.792108548415 -0.000220451452006 -0.000410737320852)
(0.805342437614 -0.00435561333706 -0.00726154054312)
(0.804689141347 -0.00368551943912 -0.00766281621025)
(0.810311346693 0.00309684545471 -0.000366055623514)
(0.809810428493 -0.00412213309094 -0.00053055318835)
(0.80910259001 -0.00496508256308 -0.000376565608394)
(0.810874282306 0.00314861503638 -0.000658740719937)
(0.809919114309 -0.00404400920016 -0.00163914790895)
(0.809486250263 -0.00489091335375 -0.0010440843574)
(0.810794764269 0.00289104660152 -0.00086830697577)
(0.810163242027 -0.00477418905668 -0.0041511797882)
(0.810998370639 0.00346398297831 -0.00184858689983)
(0.808970644205 -0.00407280475563 -0.00632707397351)
(0.0660144098094 0.107593091164 -0.01142494994)
(0.00599526066008 0.0164158831061 0.0861024720086)
(0.0392757794192 0.0505443498219 -0.231244879651)
(0.811717402304 0.00203029270539 -0.000757947926559)
(0.809976935972 0.00203887128517 -0.000255846166568)
(0.799262941738 0.00222306849266 -0.00372235428257)
(0.796951987246 -0.000664506729723 -0.00176361328673)
(0.810289465652 0.002637880655 -0.00287776471026)
(0.811373652852 -0.00488241381634 -0.00763716037842)
(0.807799908439 -0.00385508361861 -0.00588981862152)
(0.810642673364 -0.00493422571028 -0.00705417142841)
(0.80640850915 -0.00507896558087 -0.00801650972737)
(0.786186548426 -0.000920452036088 -0.00738049293827)
(0.805919406928 -0.00458222514221 -0.00833136026478)
(0.808464272726 -0.0050759755815 -0.0109429088047)
(0.372777467168 -0.00226447216222 -0.000963707455835)
(0.205767752916 0.0749548979818 -0.00651134046472)
(0.0101640241878 0.0915571024353 0.192760162173)
(-0.00135531719659 0.0138347593894 0.190959534022)
(0.290521769607 0.0318191715604 -0.0038606179041)
(0.0899385617096 0.00810953758236 0.172056988244)
(0.8094857855 0.0010517802955 -0.00138345136683)
(0.808063452684 9.63082887902e-05 -0.000365768537579)
(0.794107501643 0.00176146190905 -0.000168687562446)
(0.794232108068 0.00155213436117 -0.000411214018258)
(0.808613309628 0.000908277271457 -0.00135999605971)
(0.793604780917 0.0014918686937 0.000279508726622)
(0.808815645425 5.40782993576e-05 -0.000362909311587)
(0.807742159027 -0.000658408422659 -0.000723411003077)
(0.807336706777 -0.00151842908102 -0.00069739633425)
(0.79362699686 0.00109742697178 0.000195117051309)
(0.792241272095 0.00120398665833 0.000414574638986)
(0.806638337635 -0.00157115534614 -0.000730087545186)
(0.7928279863 0.00131294010711 0.000705425363718)
(0.808461936004 -0.000613974945189 -0.000787841996244)
(0.805310521755 -0.00294861868199 -0.0032882585526)
(0.807021473908 -0.0020508819258 -0.00182757911103)
(0.791216572809 -0.00103281429299 -0.00124429615508)
(0.791323065715 0.0007611896034 1.19941179925e-05)
(0.806230994186 -0.00218001363077 -0.00202571702324)
(0.790600926402 0.000565310361678 -0.00124535301174)
(0.806076858889 -0.00272572654994 -0.00283324673308)
(0.806057201582 -0.00367416669991 -0.0065949770188)
(0.789528977861 -0.00161422558315 -0.00372864856003)
(0.789120851924 -0.000480367184685 -0.00401374827536)
(0.80533851504 -0.00370378483092 -0.00472698181172)
(0.790183965706 -0.00142777951565 -0.00210520069211)
(0.789607280213 -0.000374073860576 -0.0021785785306)
(0.806064279166 -0.00327596044467 -0.00417218577843)
(0.803689476035 -0.00287514989696 -0.00724778972157)
(0.788415859896 -2.01306765992e-05 -0.00528971755242)
(0.7878833869 -0.000168051202563 -0.00416937562933)
(0.804610097545 -0.00289482446848 -0.00505860801673)
(0.78847313508 -8.7314023335e-05 -0.00199908867271)
(0.803740559825 -0.00205740123669 -0.00417054090034)
(0.788976196604 0.00033867457136 -0.0033896401234)
(0.475987142074 0.0275327800349 -0.00334836966399)
(0.140042599355 0.0597999167008 0.147491385195)
(0.469563418115 0.0797398033192 -0.000416032967988)
(0.423530738466 0.0544973055659 -0.00246747173952)
(0.108933940809 0.0939145907241 0.103648433439)
(0.0832111050775 0.0752896679571 0.113075582504)
(0.0752097197152 0.102613654746 -0.0137487396851)
(-0.0214501434703 0.152586463186 0.169145206025)
(-0.0470703251194 0.00886350787694 0.16733645118)
(-0.027312925588 0.1115866119 -0.0143864805522)
(-0.031161015133 0.166313221506 0.12012915569)
(-0.0326573696211 0.114979864883 -0.0124315553187)
(-0.0633998918692 0.0172494821663 0.112434114377)
(0.811056265926 0.00235567158459 -0.00432245767739)
(0.810778142731 0.00262950315224 -0.00410174031958)
(0.798167422126 0.00120284859254 -0.00343411272743)
(0.79843389208 0.00114842650544 -0.00353250030815)
(0.811580340684 0.00207926172161 -0.00409359586301)
(0.810267520848 0.00303573933408 -0.00439460914488)
(0.797455907362 0.000357501224789 -0.00330923551472)
(0.811884924142 0.00174861360026 -0.00339455771396)
(0.812866206264 0.000932774557769 -0.00225617984743)
(0.797122545828 0.000199856015552 -0.00248727532855)
(0.796280169667 -0.000536943340514 -0.0016497715264)
(0.812521082337 0.00150110714986 -0.00294424415232)
(0.812103580485 0.00107091840655 -0.00252792336064)
(0.796517219497 3.07149888028e-05 -0.00237126556387)
(0.796557756269 0.00153571775718 -0.00213853681459)
(0.795657831406 0.00154360969495 -0.00126075867576)
(0.810451399235 0.00166189133211 -0.00174942598831)
(0.811151121239 0.00222916172765 -0.00281668005828)
(0.795957685696 0.00034455728624 -0.00142016080518)
(0.811302942073 0.00151149841298 -0.00195685514613)
(0.796599155997 0.000444780372615 -0.00234866250894)
(0.806871010575 -0.00413755013857 -0.00745987447249)
(0.788575419279 -0.00166231725557 -0.00474707035906)
(0.788267427877 -0.0012867298484 -0.00491903014904)
(0.807759671032 -0.00536297974281 -0.0103731202589)
(0.787937604165 -0.00131675329699 -0.00621372428038)
(0.80814324456 -0.00442706846245 -0.00985025821774)
(0.787598993567 -0.00152184851196 -0.00651809951213)
(0.809203535738 -0.00570976097255 -0.00992696723255)
(0.8118864542 -0.00499684162946 -0.0107304517342)
(0.78750019659 -0.00125074566608 -0.00668520344881)
(0.7861147159 -0.00178867963393 -0.00756170078815)
(0.80961988888 -0.0046716001649 -0.0095926289042)
(0.81169845507 -0.00607620901462 -0.0110686244683)
(0.787247326466 -0.00174547179237 -0.0069378943858)
(0.806559284656 -0.00442274614417 -0.011445875068)
(0.804975159657 -0.00384638263678 -0.00828329073536)
(0.787646143194 -0.00097064387306 -0.0060832265835)
(0.786953095222 -0.00124022909259 -0.0057420989281)
(0.786983649711 -0.00134591076608 -0.00761504537325)
(0.807401263106 -0.00502449298958 -0.010832499334)
(0.787175944019 -0.000832980918987 -0.00746950663659)
(0.787026258521 -0.00148269727819 -0.00842605219417)
(0.786257794455 -0.00131217046262 -0.00940602241075)
(0.811408617759 -0.00534927470049 -0.0123957699789)
(0.808948964941 -0.00554095273418 -0.0102780340688)
(0.786117137048 -0.000783618084624 -0.0086528195277)
(0.811624940905 -0.00587593683369 -0.0114077129027)
(0.787021514717 -0.00101509753243 -0.00794696896225)
(0.810813362951 -0.00539359586892 -0.00295486869226)
(0.812715098169 -0.00538662361581 -0.00607488649035)
(-0.0951847088454 0.106860718028 -0.0104040946707)
(0.0875718570456 0.0202220735152 -0.468265746309)
(0.810279711023 0.000433226233138 -0.000158409451429)
(0.795073154394 0.00115649482338 -0.000100759057569)
(0.811870925521 -0.00548460364782 -0.00502371852003)
(0.8134573966 -0.00601459456496 -0.00188724908235)
(0.785397924575 -0.000649356761339 -0.00700144916167)
(0.785932800536 -0.000612480367261 -0.00927814089577)
(0.78471766125 0.00201355156229 -0.00284991242902)
(0.812847145656 -0.00619391837166 0.000955664276327)
(0.811542813994 -0.00654751385867 0.00214515925418)
(0.783772888166 0.00258490209472 -0.00113622501655)
(0.778773436011 0.00393107608835 0.00297257945082)
(0.418310728725 0.0124920337547 -0.001583442892)
(-0.0993890955723 0.10879065553 -0.0122021671134)
(-0.133784866573 0.122460138365 -0.000312507388847)
(-0.0572724803265 -0.0495501914943 0.0509736802121)
(-0.0314793024142 0.166077926513 0.0595997839166)
(-0.0321395248658 0.138113621247 -0.0115623812029)
(-0.163209983241 0.149465430879 0.0087160630858)
(-0.112193352711 0.161689155218 0.0111668266279)
(0.8107144393 -0.000144225576956 0.000492713139286)
(0.810564452562 0.000754223683335 -0.000717212355592)
(0.79560933561 -0.000216942931604 -0.000740920141341)
(0.794609575217 0.000735060119389 0.00102889215136)
(0.811445087087 0.000619083594764 -0.00120497235201)
(0.795369641471 -0.000697294045487 0.000350296211027)
(0.80985265911 -0.000215727825415 0.000782385005362)
(0.81511117989 -0.00615737972813 -0.0087820274547)
(0.81311300391 -0.00518805642968 -0.00936570105023)
(0.784787625262 -0.000591850231751 -0.00630398992423)
(0.785499986445 -0.00125523060042 -0.00744287112623)
(0.815181280791 -0.00520886820797 -0.00861132772478)
(0.812816228529 -0.00617301344852 -0.00973987399023)
(0.784916444671 -0.000904883477994 -0.00653419743984)
(0.815137321085 -0.00581125132463 -0.00877470534674)
(0.812601271041 -0.00530055385687 -0.0108952353839)
(0.785660403866 -0.000155670361123 -0.00846466065889)
(0.785584558796 1.19861516546e-05 -0.00826194154364)
(0.812637846286 -0.00584735613887 -0.0100139352122)
(0.785048305723 0.000343720496266 -0.00750614213732)
(0.815259682342 -0.00527549985977 -0.00963441734747)
(0.815562043941 -0.00559639194788 -0.00643826291819)
(0.815553570314 -0.00505916482126 -0.00211924096613)
(0.784285590893 0.00183212055783 -0.0031756190726)
(0.785315400983 0.0010669374114 -0.00671006051492)
(0.815547931875 -0.00569464701201 -0.00223445438043)
(0.784721752906 0.00120689283669 -0.00626785930874)
(0.815740587148 -0.00500655874927 -0.00695785963861)
(0.813483636426 -0.00604567546519 0.00275027441727)
(0.814384818997 -0.00509078768108 -0.000635554609241)
(0.783578493686 0.00235538814836 -0.00167119459467)
(0.78201008701 0.003225808644 0.00109903591894)
(0.814562426257 -0.00584471394735 -0.000821458534839)
(0.781719331082 0.00282696243197 0.00126682194996)
(0.813175105915 -0.00541173064853 0.00274931843579)
(0.811740065879 -0.00626518514349 0.00365515839524)
(0.810104162124 -0.00598223196411 0.00448770337109)
(0.778153708168 0.00318179712701 0.00265104938489)
(0.78018084739 0.00349909785876 0.00234813005552)
(0.810272525404 -0.00657047030307 0.00447878638167)
(0.779873136529 0.00287755555604 0.00239137056597)
(0.811589933735 -0.00566610821304 0.00340071870561)
(0.788523093181 0.00825295889522 -0.000974301133277)
(0.795365296824 0.0103872366837 -0.00414194680013)
(0.799777721087 0.0162303730282 -0.000852892066423)
(0.801679499668 0.0109176538993 -0.00167629268162)
(0.552048499249 0.122167631419 -0.00890140331824)
(0.45001870716 0.0585388611995 -0.0055547787384)
(0.389411504424 0.102666066731 -0.0189652202539)
(0.370076057732 0.0721774046352 0.00148531970607)
(0.387215531711 0.063280222445 -0.00173025603786)
(0.3202232393 -0.0607135928261 -0.212822436926)
(0.254549357665 -0.0594979627765 0.531692334029)
(0.273306046018 -0.0656136839568 -0.338863443483)
(0.260359592897 -0.0760802994772 0.289021048364)
(0.313446756276 0.0114615735825 -0.299487817603)
(0.380365663302 -0.00723234127561 0.293342101694)
(0.785021932877 0.00222580897033 0.000664373158236)
(0.786596714809 0.00341790767316 0.0010270248896)
(0.781916163538 -0.00134873574978 0.00441092674156)
(0.782233154449 0.00522363633482 0.00426899373226)
(0.78397343687 0.00643209607795 0.00157836847696)
(0.782302458121 0.00543218052809 0.00348328161185)
(0.788410459899 0.00481705186562 0.000103648897124)
(0.791687982614 0.00624908301859 -0.00149344823314)
(0.782376882598 0.00625269091822 0.00291981643405)
(0.782940674305 0.00599688336104 -0.00318061953514)
(0.787140796239 0.013297311247 0.0015217236643)
(0.791840552464 0.00962069226752 -0.00226208740142)
(0.793538476027 0.0138457890678 -0.00075852349474)
(0.782519131719 0.0064117947198 0.00178910161949)
(0.786980496894 0.00937026158211 -0.00279743215998)
(0.784094878025 0.00671547744707 -0.00439038840455)
(0.788983236125 0.00959781235403 -0.00501388546633)
(0.796489655931 0.0189304762407 0.00140782089542)
(0.800381309797 0.0232624506865 0.00273827952923)
(0.788112744328 0.00996691700033 -0.00216871515524)
(0.793040800258 0.0135510327318 -0.00256122317629)
(0.79017746181 0.0107608269079 -0.00310799297661)
(0.793756752599 0.0121157825819 -0.00122365878885)
(0.797410883391 0.0134124258884 -0.00215542711975)
(0.79947950639 0.0119538715399 -0.0024371239273)
(0.784857456534 0.0062761727964 -0.00492924159255)
(0.789828353076 0.00907571371282 -0.00409216967218)
(0.791161742605 0.00769985986634 -0.00330341537947)
(0.802619427039 0.0181562832159 -0.000130053234641)
(0.801272833778 0.0131350830642 -0.000692307219269)
(0.803455054958 0.0139269566669 -0.000113348825733)
(0.791054726307 0.00958858792059 -0.0023142934981)
(0.793786862709 0.0111412766667 0.000350479898653)
(0.792140464789 0.00804813149337 -0.00145710467096)
(0.794080942175 0.00884186093028 0.000806089446686)
(0.792340921778 0.00705770887246 -0.00194063840872)
(0.79469001 0.00825665095492 -0.000563493024148)
(0.596374794141 -0.0384424041928 -0.00289477257349)
(0.610708820766 0.0476011092247 -0.00287696261445)
(0.607683151817 0.0506889407187 -0.00646685234632)
(0.237029536926 0.00225756362548 -0.150058627138)
(0.348432544035 0.00812647078271 0.00336515259686)
(0.28359593112 -0.014801378069 -0.0809505710675)
(0.378028285191 -0.0213606460806 0.0214273596658)
(0.337193752731 0.00978088873629 -0.00158411799982)
(0.194974195111 0.0122690955425 0.00130712853384)
(0.358399261204 -0.0201557796318 -0.0159829279534)
(0.2068164587 -0.018644697013 0.00192975641708)
(0.573598548717 0.129470925041 -0.00224853158296)
(0.485753813289 0.1678167081 -0.00522066240169)
(0.514866528275 0.0901029852011 -0.0119205337874)
(0.460097132251 0.137650430809 -0.0130529270514)
(0.424598367919 0.0926766089348 -0.0120474493388)
(0.289566901404 -0.0370990891047 0.0229592255384)
(0.383854451112 -0.0187944223575 0.037973921718)
(0.275648114628 0.0132939692879 0.0917436422713)
(0.37137812462 0.0397986056358 0.0483679644847)
(0.433091294114 0.0293642728583 -0.00394417910664)
(0.396493572961 0.0678089221141 -0.00298615950865)
(0.394464620779 0.0299273895514 -0.00115975454679)
(0.374169568822 -0.0120162199042 -0.00501322783867)
(0.241054961578 -0.0077417030637 -0.00269861160808)
(0.372101058383 0.0477786938426 -0.0129572626927)
(0.258259543879 0.0619207442222 -0.036032425628)
(0.375662566641 0.0791710210143 -0.0115748687117)
(0.366781402534 0.0544860544023 -0.00935765691623)
(0.25501183423 0.00580064169738 0.113298094208)
(0.356370763882 0.0296257921198 0.0399699236665)
(0.370291113538 0.00434942854712 0.0437289065217)
(0.38075290509 0.0425635674758 0.000567981504619)
(0.367576218838 0.0714655968394 0.00296576521131)
(0.38843637092 0.0618221035788 0.00194343667396)
(0.376021061095 0.0358367399166 -0.0301141203151)
(0.285863037083 0.0591524131011 -0.0678718418065)
(0.414343005442 0.0186306052198 -0.0301240352323)
(0.356389360433 0.0310049497692 -0.0606104854963)
(0.786219114157 0.00228665004692 0.00451912426481)
(0.784406397768 0.00225233888176 0.00402777290114)
(0.782205264162 -0.00135385471987 0.00448835475564)
(0.782035884687 0.00117035386299 0.00491510597961)
(0.784493368007 0.00286720325718 0.00448645020535)
(0.782228392571 0.00111674519508 0.00507925608068)
(0.785942064196 0.00200419745151 0.00377684770026)
(0.786597532222 0.00244617069783 0.00465190268633)
(0.786428596056 0.00375088741085 0.00341817910582)
(0.782076785296 0.00310578010824 0.00477117905015)
(0.782291874695 0.00520204661273 0.00455231090188)
(0.785314764632 0.00343408385366 0.00415518292457)
(0.787268538979 0.00270659594297 0.00400076897482)
(0.78219992279 0.00313248563643 0.00499074092226)
(0.783351523729 0.00537955062885 0.00287079932999)
(0.785208575958 0.00494343518713 0.00295115949203)
(0.782127727123 0.0031901650579 0.00426599845889)
(0.782754393733 0.0056036644049 0.00160775429424)
(0.784278252509 0.00395482478136 0.00394759916357)
(0.784900831263 0.00667909911569 0.00144069655447)
(0.782114662178 0.00341532406908 0.003096596653)
(0.789424135496 0.00316079134382 0.000824505219852)
(0.787694923559 0.0041249306576 0.00141956869781)
(0.782422087084 0.00626824895849 0.00339947978641)
(0.782328378758 0.00651285662528 0.000958300972945)
(0.788277377314 0.00290978719729 0.00256536652525)
(0.788930426382 0.00443944527876 -0.000832687542559)
(0.782233109081 0.006383676715 0.00192129611883)
(0.790502237122 0.00379833010901 -0.00124544243638)
(0.792078930682 0.00604232630237 -0.00557059403038)
(0.782877476904 0.00652157919296 -0.00127125189895)
(0.782497849283 0.00556845071513 -0.00167095986056)
(0.790431933314 0.00491314120444 -0.00360494714418)
(0.7918254266 0.00476744919624 -0.0031309254513)
(0.782346110865 0.00636758722121 7.44565107598e-05)
(0.789181812122 0.00803747172804 -0.00374980737129)
(0.786833862771 0.00565484474667 0.000532466246969)
(0.783534771737 0.00697834028943 -0.00047363632881)
(0.782888981923 0.00709450754341 -0.000418369349714)
(0.786865291168 0.00760427880729 -0.00173195971773)
(0.788602928471 0.0059395247534 -0.00213344682826)
(0.784512763388 0.00800053993566 -0.00288265624772)
(0.790284431645 0.0107986657687 -0.00501646004492)
(0.788467183927 0.0125359188398 -0.00232051988582)
(0.785269133683 0.00807910170691 -0.00233801690714)
(0.787335342789 0.00998963989251 -0.0038766781757)
(0.787588448685 0.010063534061 -0.00368935118397)
(0.791316992944 0.0135700001241 -0.00340860698627)
(0.786127588078 0.00898173380342 -0.00355339022094)
(0.791761082756 0.00909167880753 -0.00589886828217)
(0.792754388861 0.00790670347254 -0.00610565448808)
(0.783685024889 0.00719749333525 -0.00253496435058)
(0.78573992684 0.0075425619431 -0.00582859045546)
(0.790637522234 0.00681527694576 -0.0043303273847)
(0.794141667527 0.010058160135 -0.00729285989883)
(0.78540473516 0.00807149553192 -0.00454149051821)
(0.793037226043 0.0115646530276 -0.00605998097905)
(0.79698168431 0.0149252143154 -0.00494197253531)
(0.788027187067 0.0098128306571 -0.00446870501582)
(0.787672564537 0.00858355709723 -0.00611023859274)
(0.794287516836 0.0144376508121 -0.00435498359094)
(0.795683364902 0.0125535806101 -0.0074945574428)
(0.787064008789 0.00882791194489 -0.00468542492301)
(0.794660695088 0.0195374058612 -0.000854827452517)
(0.790005046751 0.0156593918965 -0.00222684029361)
(0.788532657587 0.0114372726562 -0.00202466445122)
(0.788775437846 0.010405596054 -0.00370044717848)
(0.791524994278 0.018944814364 -8.33576917146e-05)
(0.793054075463 0.0164203171275 -0.00375990444047)
(0.789883098417 0.0118128073291 -0.00261462551096)
(0.796591865916 0.0221950530575 0.000118660849143)
(0.797672212644 0.024164891932 0.000315769033085)
(0.790240738321 0.0125873447059 -0.00203145251514)
(0.793040602874 0.0134717295678 -0.00178318785116)
(0.794016200917 0.0218804578182 0.000108296246381)
(0.791151764909 0.0130018548436 -0.00143457296346)
(0.799578076888 0.0243017806746 0.000263079060063)
(0.797335150832 0.0193851003525 -0.00202886603195)
(0.798019276768 0.0172402413199 -0.0036182045356)
(0.789671757519 0.0108885511205 -0.0041030017373)
(0.790622091878 0.0113713469293 -0.00254178947431)
(0.795888820231 0.0172222070787 -0.00414420174879)
(0.798956902629 0.0188418128715 -0.0016918963157)
(0.7908985853 0.011533144552 -0.00275074496115)
(0.798878258173 0.021542716975 -0.000394351786455)
(0.802748049242 0.0216416120072 -0.000730694444305)
(0.793291864675 0.0125967791046 -0.00132784601133)
(0.79194837682 0.0115256812482 -0.00149403629195)
(0.800465978646 0.0204525986545 -0.00102424339728)
(0.791824164646 0.0120159425252 -0.00108329492838)
(0.801451085149 0.0232205191329 -0.000598883906587)
(0.798136991767 0.0109512553421 -0.00897471555217)
(0.794667255258 0.00882154731006 -0.00712708761898)
(0.786786480063 0.00713123234377 -0.00616129582587)
(0.785668592682 0.0061546287237 -0.0061920017783)
(0.796333103152 0.0107870139771 -0.00831201612325)
(0.796347817592 0.00934160650704 -0.00811014127017)
(0.787640514545 0.0071284462618 -0.00698290069969)
(0.799517686719 0.0124866899438 -0.00725571023867)
(0.799094242509 0.0146568932827 -0.00454570829904)
(0.788757895837 0.00824677545466 -0.00603178864158)
(0.789955437917 0.00878457457075 -0.00394917416725)
(0.797759169032 0.0128898591495 -0.00747739725483)
(0.800359923273 0.0136265524811 -0.00426417124319)
(0.789552804062 0.00807378406186 -0.00590059187606)
(0.800547653494 0.011787095537 -0.00678143104453)
(0.801758074843 0.0114955469701 -0.00389577890396)
(0.790607842711 0.00819941485228 -0.00349731471768)
(0.790414130526 0.00746356283029 -0.00546608202205)
(0.801233332454 0.0125884039757 -0.00376410198207)
(0.801008967659 0.0112023610053 -0.00658228453663)
(0.79028630483 0.00765029616419 -0.00559133048382)
(0.801494963321 0.0156556660218 -0.000474889674616)
(0.799659361607 0.0162134989386 -0.00290203040483)
(0.791198570151 0.0104634861018 -0.00140328739956)
(0.791306154011 0.00919943011396 -0.0029424496575)
(0.800367269463 0.0174942385748 -0.0010486787958)
(0.800799454249 0.0147736934156 -0.00345679038554)
(0.791944843262 0.00995371856084 -0.000445290733802)
(0.802564149738 0.0166040167994 0.000785062628675)
(0.803538332606 0.0196397325901 0.000307276369889)
(0.792262757245 0.0109416826746 -0.000108587183262)
(0.793339273456 0.0106412765257 0.00122266365959)
(0.801747228979 0.018845886233 -0.000122316932465)
(0.792398091082 0.0104209421248 0.00132701509675)
(0.80398527347 0.0171354326624 0.00108759167154)
(0.802240851566 0.0137747927763 0.000152226737438)
(0.802038667911 0.0118504933491 -0.00222621994655)
(0.791705393189 0.00876730745883 -0.00257473655105)
(0.792249972509 0.00818575363649 -0.000301071613467)
(0.801613277674 0.0132793040954 -0.00278173614828)
(0.802434878088 0.0120929621862 1.54483973495e-06)
(0.792322989547 0.00893823159991 -4.86155929753e-05)
(0.803127640934 0.0142368220792 0.00165607098617)
(0.804415887564 0.0123491388278 0.00105902108257)
(0.793496581167 0.00941375347056 0.001844253467)
(0.792831559483 0.00835697989226 0.000501382509988)
(0.803252810483 0.0123444154862 0.000399311451705)
(0.792758275376 0.00916962719085 0.00187619316934)
(0.804227117719 0.0144980543895 0.00190738036089)
(0.802746488446 0.00929160830215 -0.00219083644742)
(0.802380044649 0.0103440526968 -0.00277009894433)
(0.792799539957 0.00722635175835 -0.000906845724461)
(0.792322625215 0.00698599521894 -0.00263117618416)
(0.802673475669 0.0104924715213 -0.00104467716852)
(0.802106836103 0.00933385720589 -0.00330358812239)
(0.793302736539 0.00714211447136 -0.00201117723221)
(0.804298260967 0.0106077400244 -0.000503771667802)
(0.793545765931 0.00787181216136 -0.000512054048165)
(0.803431240778 0.010764476757 -0.000628379175393)
(0.81225354441 -0.000109959014428 -0.000190651909533)
(0.812352153255 -0.00358209205417 -0.00034021550774)
(0.810962732446 -0.0055570598235 -0.000714708789898)
(0.808392599419 -0.00542365901329 -0.000147100583297)
(0.805997138422 -0.0052941836922 7.52206610984e-06)
(0.808167816242 -0.023377731386 4.83680265788e-05)
(0.812326378106 7.36385453616e-05 -0.000734241134036)
(0.811900560723 -0.0034499081195 -0.0009664558297)
(0.810869571456 -0.00566737873269 -0.00140541528487)
(0.808923731132 -0.00546735189046 0.000189572314487)
(0.806156786489 -0.00556689469893 0.00158758575661)
(0.80852153365 -0.0238604456072 0.00210752708506)
(0.81631707024 0.00545860567118 -0.00115963038707)
(0.814777021082 0.00499634015714 0.000447620051886)
(0.79448545183 0.00426338837071 0.00678924267074)
(0.790882473318 0.00236284192071 0.00923845538935)
(0.788013974202 -0.00316459431859 0.0131584576995)
(0.787823404004 -0.00533436065404 0.0131070586496)
(0.792050168602 -0.00443192647995 0.0101316774864)
(0.778104667134 -0.0127671257443 0.00771838827262)
(0.826371783795 0.00379227011676 0.000110051443386)
(0.822848486528 0.000735073480332 0.000308803281752)
(0.820186599369 -0.00800682949581 -9.38472247359e-05)
(0.815327031366 -0.0168595271253 0.00110074679234)
(0.811356175788 -0.0179290804812 0.00299010144694)
(0.805367553313 -0.0164138806999 0.00359297589416)
(0.803266098074 -0.00943505427778 0.00246404483084)
(0.79471021825 -0.0284840895523 0.0024291542606)
(0.818665631213 0.0032646430086 -0.000899306158723)
(0.820056137212 -1.30457947325e-05 -0.000692002040915)
(0.818990874692 -0.00585662066146 -0.000721934356962)
(0.815169683266 -0.00913238745968 -0.000230547700363)
(0.811723530886 -0.00974249731759 0.000815268472582)
(0.807561865784 -0.00968458182447 0.00144730163762)
(0.804509137073 -0.00690215305388 0.00148355818949)
(0.800352207472 -0.0271280876436 0.00145996464709)
(0.813796936834 0.00340831887696 -0.000363279524883)
(0.816272305475 -0.000453084447789 -0.000621896876294)
(0.815788543898 -0.00438799479246 -0.000518839513206)
(0.81261220436 -0.00738517480269 -0.000489162153594)
(0.810494381787 -0.00889312484588 -3.65688487623e-05)
(0.808305536512 -0.00962475526464 0.000370591303729)
(0.8053675104 -0.00774546116493 0.000612036226398)
(0.804458368089 -0.0299012095446 0.000641616548756)
(0.809866488881 -0.00639261656098 -0.00054232180326)
(0.808751755925 -0.00688118569785 -0.000315948638848)
(0.805952446657 -0.00616007373533 2.92734161647e-05)
(0.807128089638 -0.026120391373 0.000107030773872)
(0.639247760146 0.0409380569184 0.00882869517497)
(0.639696151942 0.0396172674957 0.0141691679568)
(0.65394091928 0.0210652712415 0.0264507086155)
(0.664983490077 0.0102450681138 0.0287134533754)
(0.701577390021 -0.00225871837923 0.0248949865373)
(0.727462710989 -0.00869239119432 0.0189067693441)
(0.770299734881 -0.00585926571094 0.0116864295206)
(0.752742031538 -0.0180773935901 0.0100062878453)
(0.773903025167 0.0118052182416 0.0060849746141)
(0.772915608002 0.00426665288752 0.00832148235439)
(0.781588381851 -0.00603030547301 0.0128151993781)
(0.785628417915 -0.0187872732333 0.0136781260376)
(0.793170892996 -0.0240868265761 0.0116480224219)
(0.794220804703 -0.0234669991141 0.0100675561167)
(0.797840735638 -0.0157144936918 0.00810744987978)
(0.789842106675 -0.0382832496494 0.00728767991656)
(0.819706253083 0.00435457027144 0.000304240209424)
(0.819380303562 0.0017776847668 -0.000387919175256)
(0.818679388412 -0.00448243966025 -0.000705054181112)
(0.816163427599 -0.00903735031759 -0.000920132353847)
(0.813466104068 -0.0114234674626 0.000421729973716)
(0.80890699547 -0.0118968176774 0.00180540503918)
(0.805116677488 -0.00838820263371 0.0037444386923)
(0.800831865512 -0.0308508806982 0.00411036120522)
(0.814091118039 0.00318839401213 -0.000288389487797)
(0.816060695246 -0.001432212336 -0.000835886662149)
(0.815584437046 -0.00450081988106 -0.00109526774558)
(0.81313484042 -0.00671058464417 -0.00115978021351)
(0.811143902827 -0.00825880372193 -0.000145481290428)
(0.809194254179 -0.00888173869325 0.00100514030414)
(0.805680370423 -0.00770592928657 0.00292984424866)
(0.804938023644 -0.0310736106124 0.00329730949956)
(0.810139155415 -0.00675710441227 -0.000741378567155)
(0.809322036616 -0.00726254275844 0.000510889003089)
(0.80632270587 -0.00672031663423 0.0021034836974)
(0.808014706413 -0.0276586654773 0.00258520234486)
(0.634928918858 -0.015676233144 0.0158311625877)
(0.62947587619 -0.0171679907908 0.0201846824455)
(0.643057656159 -0.0272146027544 0.0275492846816)
(0.654534166693 -0.0329050951741 0.0179001440561)
(0.694433848748 -0.0315076007204 0.00518346438326)
(0.725007372628 -0.0252168776379 0.000439901527775)
(0.770005861302 -0.011814824887 0.00214845586677)
(0.756701285365 -0.0237748252943 -0.00145426860346)
(0.735394607389 0.00371915227308 0.0201016775589)
(0.734872632545 -0.00393752226136 0.020899015875)
(0.786880309061 -0.00830738756674 0.00675579193739)
(0.789035330639 -0.0191678934721 0.0017141091395)
(0.794422491357 -0.023175279014 0.000719717619132)
(0.79474327501 -0.0229695831995 0.00215214832586)
(0.797874304477 -0.016044173068 0.00290050885812)
(0.793450291658 -0.0406198082674 0.000336883302528)
(0.819322578617 0.00340568667118 -0.000268637756072)
(0.818768027622 0.00116450622636 -0.00111433097669)
(0.819030614142 -0.00610810205536 -0.00173482628137)
(0.817474655386 -0.0130519241974 -0.00521330815767)
(0.81466041574 -0.0142013168935 -0.0049563609248)
(0.811419445964 -0.0136515170483 -0.00249386435313)
(0.806201847513 -0.0095673575513 0.00125818187023)
(0.806520339135 -0.0346778928761 -0.000111914657419)
(0.810268280949 0.00767862102925 -0.000833761429563)
(0.813999253895 0.00278310460922 -0.000423736528717)
(0.815428549141 -0.00123636120978 -0.000454534774263)
(0.815314496201 -0.00466647024049 -0.00242796089626)