/*--------------------------------*- C++ -*----------------------------------*\
| =========                 |                                                 |
| \\      /  F ield         | OpenFOAM: The Open Source CFD Toolbox           |
|  \\    /   O peration     | Version:  v1906                                 |
|   \\  /    A nd           | Web:      www.OpenFOAM.com                      |
|    \\/     M anipulation  |                                                 |
\*---------------------------------------------------------------------------*/
FoamFile
{
    version     2.0;
    format      ascii;
    class       volScalarField;
    location    "3.05";
    object      alpha.water;
}
// * * * * * * * * * * * * * * * * * * * * * * * * * * * * * * * * * * * * * //

dimensions      [0 0 0 0 0 0 0];


internalField   nonuniform List<scalar> 
28582
(
1.00000176153
1.00000207365
1.00000242851
1.00000288024
1.00000186644
1.00000211177
1.00000478597
1.00000620755
0.0247815706827
0.0257943008881
2.18717455489e-07
1.00000566073
0.944720874037
0.947831773966
1.00000635354
1.00001147097
0.948248436421
0.999972027024
0.999968187147
1.00000063974
1.00000265502
1.00000295382
1.00000098008
1.00000360389
1.00000391638
1.00000082564
1.00000289569
1.00000756872
1.00000599411
0.0262318515295
1.78542624609e-06
1.24506567783e-06
1.0000074262
1.00000672917
0.942648528958
0.941797887808
0.999939232581
1.00000572314
1.00001118235
1.00001097789
0.999969931254
0.948508594721
0.99996519426
0.999969737643
0.0249489962014
0.0258601705502
2.97889919314e-05
3.352953163e-05
0.0253453004284
5.21819880563e-05
0.999929000521
0.999924996496
0.945494786364
0.946050215073
0.999912497374
0.947296232925
0.999936823444
0.999937080351
0.999970820076
0.946862883512
0.948571527964
0.999948362217
0.947972682171
0.999952509157
0.999968153239
0.99998267551
0.948707840571
0.948972984241
0.999960432548
0.949218089511
0.999991152134
0.999990107196
0.949093115307
0.949183494836
0.999968836287
0.948918365965
0.949126143874
0.99999129835
0.999991141821
0.949140838466
0.948675579855
0.999975474572
0.949056601446
0.999998417681
0.949231620293
0.0251460993982
7.57585816135e-05
0.0236470823391
0.0251133489938
4.44245471311e-05
5.67149048338e-05
0.0266029648618
6.70804673503e-05
2.58901253667e-05
0.027683253746
0.000127826406335
0.0268426439423
4.20338690966e-05
0.99991928995
0.999951812422
0.942028091092
0.942526130766
0.999946545768
0.99994176732
0.941540999285
0.99990186626
0.99991799317
0.941995229587
0.940525134077
0.999932253551
0.999895817398
0.940339820425
0.942157484554
0.943075793912
0.999939039001
0.999911000208
0.940934420355
0.999912548484
0.940731553652
0.999987150342
0.948936186655
0.949126630401
0.99996844928
0.948943590132
0.999983551142
0.948918742373
0.999962600499
0.999973258329
0.948774241158
0.94745118445
0.999979583874
0.999958250199
0.948379689785
0.999975320446
0.999984266762
0.948800341213
0.948494209002
0.947877590759
0.999959633024
0.948178261086
0.94639561684
0.944386015693
0.99995541001
0.999952748909
0.945443915338
0.99994252126
0.946948043642
1.00000325352
1.00000543942
0.0278582025853
4.51354329474e-06
1.00000617001
0.9436154652
1.00001068115
1.00001043602
0.947936860621
0.942362202446
0.937181423087
1.00001089554
1.00001012455
0.934543070834
0.920835219789
0.025365362365
0.0288409714109
0.0304852052137
0.000104444069699
0.000187149312224
0.00023401417773
0.032644930463
0.034809684386
0.99992775311
0.999944833826
0.942415982988
0.94452717885
0.99991430214
0.94411533554
0.999959786022
0.999939615165
0.999964378923
0.946925491162
0.946455690353
0.999950703527
0.999947882127
0.944893909574
0.999918991748
0.999942871314
0.943792293757
0.940511635211
0.999932126196
0.94189069446
0.999923245807
0.999903209249
0.999892979808
0.938164791621
0.939052950462
0.99988677126
0.940075133131
0.999906580348
0.999844437242
0.999880337207
0.935494629436
0.932108353183
0.999868499892
0.931449622419
0.999854998912
0.999805336771
0.999773504893
0.918503682294
0.927640623305
0.999740767311
0.925425314314
0.99982497698
1.00000800647
1.00000327613
1.00000160188
1.00000300213
0.0140572437061
0.0174566237516
0.0139115459041
0.0162867152044
0.0168824074812
1.60980824358e-06
6.48446820516e-06
1.0135792171e-06
3.64756639585e-06
8.44412492283e-07
5.34214496845e-06
1.00000311453
1.00000398451
0.967619191881
0.969890155624
1.00000467256
0.971288736438
1.00000518168
1.0000046857
0.96971968568
0.96722456712
1.00000725626
1.00000682073
1.00000601397
0.970859932634
0.969525262378
0.96780076847
0.96564686196
1.00000462373
1.00000097157
0.965146200496
0.95236647482
0.962622038122
0.952050100201
1.00000337796
1.0000044463
0.966561785651
0.964971920708
0.962055393026
1.00000070562
1.00000409947
1.00000280757
0.962572337617
0.952243477216
0.960605727418
0.95148523155
0.959903877666
0.950663404351
0.0153995152805
0.014468767993
0.0147088651327
3.26693975382e-05
7.16974932878e-05
2.83690876022e-05
6.5921226252e-05
0.000127246092667
0.000139552576529
0.000113736409575
0.000114083971819
0.0137721846251
0.0136038382653
0.0153369573575
0.0138500387308
0.0148796859948
2.29917955711e-05
5.88007356868e-05
1.73416938657e-05
5.12703162757e-05
0.0187984581398
0.01666493421
0.0180224400978
9.71121307458e-05
8.68044684464e-05
8.59830581653e-05
7.73167063738e-05
0.0147700722535
0.0149108030983
1.11302027076e-05
4.19945982442e-05
3.66485685286e-05
0.0177497227205
0.0164069325128
0.0176616377708
7.89639001893e-05
8.42428385225e-05
7.01211243618e-05
9.28642473011e-05
0.999995564288
0.999999575425
0.964990774585
0.967820673285
0.999999079158
0.966660944218
0.999987943531
1.00000567399
1.00000981315
0.968859423644
0.967649571645
1.000009339
1.00000380463
0.967591220212
1
1.00001939227
0.970821473967
0.972197986544
1.00001795667
1
0.973200651916
1.00000604578
1.00000389689
0.967955914766
0.968681029059
1.00000279064
1.00001039011
0.96786267947
1.00000854615
1.00001002771
0.967705306153
0.966109234986
1.00000988879
1.00000700982
0.967076306448
1.00000894404
1.00000868947
0.97142353566
0.97011643599
0.999993553093
1.00001708484
0.971053059843
1
0.999999312173
0.970479712678
0.966574606231
1
0.999982451903
0.97023657743
1.0000072488
1.00001082135
0.969047970719
0.968184428286
1.00002210475
1
0.970022581051
1.00000081711
0.99999474192
0.965345650759
0.966664254692
0.999983932085
1
0.969290039476
1
0.999973967701
0.957052009763
0.961570470939
0.99998516085
0.999991670963
0.959437912871
0.999995677529
0.999977007655
0.952741905976
0.94556030719
0.999993705817
0.953755416922
0.999925832333
1
0.99997218714
0.960391110356
0.955529163529
0.999995037337
0.999985791862
0.959069679466
1.00000129559
0.999946048562
0.945971389121
0.951078121491
0.999980588366
0.953992817779
0.999926146608
1.00000623762
1.00000297617
0.967237992296
0.965400727782
1
1.00000824801
0.965988038594
1
0.999992753413
0.96593000918
0.963083904421
1
0.99999729514
0.965676359638
1.00000560695
0.999996863232
0.962279977997
0.962481959534
1
1
0.964558723428
0.99997710543
0.999961759287
0.955354809633
0.95821361884
0.999973713657
0.999998929889
0.957557345282
0.999975255679
0.999946489279
0.951117297402
0.948391608101
0.999982150445
0.954542060736
0.999958534187
0.999997584277
0.999986319966
0.957720058086
0.954991543803
1
0.999990211281
0.957165473474
0.999994129259
0.999961177888
0.948838800513
0.950093176773
0.999977802825
0.955080514612
0.999971665843
0.99996440668
0.999981350881
0.954289673943
0.953395494088
0.999974424731
0.999980011863
0.953840343046
0.999953313338
0.94931724831
0.999960672511
1.00000183522
1.0000022495
1.00000239048
1.00000289285
1.00000257538
1.00000221557
1.00000191945
1.00000233447
1.00000248667
1.00000378655
1.00000342499
1.00000347704
0.999957420795
0.999990023655
0.999953671662
0.999991387454
0.999999407421
1.00000051343
1.00000143114
1.00000207388
1.00000084493
1.00000017974
0.999983993929
0.99998478275
0.999995701929
0.999999528087
1.00000030552
1.00000132689
0.999997156593
0.999998875632
0.999999994439
1.00000043205
1.00000074066
1.00000099035
1.00000125172
1.00000178927
1.00000038269
1.00000107077
1.00000127926
1.00000147363
1.00000175123
1.00000175249
1.00000175349
1.00000200595
1.0000022449
1.00000220519
1.00000216731
1.00000265207
0.999861831638
0.999742596912
0.999984633125
0.999999438572
1.00000182453
1.00000288434
1.00000325741
1.00000499015
0.999834814949
0.999912150803
0.999986345484
0.999998977312
1.00000028941
1.00000109845
1.00000170299
1.00000248246
0.999981830643
0.999996677306
1
1.00000091407
1.00000127552
1.00000152078
1.00000187236
1.00000265419
1.00000080662
1.00000109292
1.00000113448
1.00000125421
1.00000140024
1.0000015366
1.00000183176
1.0000025047
1.00000245227
1.00000240987
1.00000249686
1.00000326847
0.999504148939
0.999878900487
0.999998694132
1.00000239562
1.00000368786
1.0000039684
1.00000389016
1.00000525227
0.999739741493
0.999928137942
1.00000109788
1.00000205615
1.00000209671
1.00000207879
1.00000199457
1.00000315814
0.999991869216
0.99999790904
1.00000028425
1.00000103409
1.00000132507
1.0000016567
1.00000221716
1.00000298795
0.999999803024
1.00000102399
1.00000090978
1.00000071884
1.00000074719
1.00000097801
1.00000145663
1.00000211329
1.00000286545
1.0000014515
1.00000179888
1.00000192627
1.00000208713
1.00000224462
1.00000243758
1.00000287188
1.00000370025
1.0000039944
1.00000477461
0.999804530133
0.9999878307
0.999999996472
1.00000739415
1.00001400529
1.00001642066
1.00001496599
1.00001278431
0.999999521777
1.00000314568
1.00000303476
1.00000715702
1.00000975937
1.00001044069
1.00001058387
1.00000741739
1.00001196658
0.999999826338
1.00000099617
1.00000370426
1.00000516611
1.00000541641
1.00000529055
1.00000571692
1.0000064858
1.00000444134
1.00000399221
1.00000602773
1.00000740151
1.00000482384
1.00000280642
1.00000227562
1.00000316282
1.00000520981
1.00000491771
1.00000432793
1.00000563844
1.00000397039
1.00000312859
1.00000335931
1.00000491821
1.00000375604
1.0000045056
1.00000583899
1.00000355155
1.00000428769
0.0254227951699
0.0265977192544
0.0272705567034
0.0284009840671
0.0277069206237
0.0293992078477
0.0365754768989
0.0438809127961
0.0191096387801
0.0208080575957
0.0234702699888
0.0257853923242
0.0266078173692
0.0274488964483
0.027281783648
0.0295128574686
0.0367409522286
0.0439186190764
0.0185128840637
0.0198452270558
0.0219081525458
0.0243491462937
0.0258003474468
0.0267190954607
0.0271130249782
0.0300312145243
0.037204616032
0.0440261603583
0.0196577840766
0.0217182828727
0.0244412767784
0.025921116298
0.0275128949865
0.0276517125707
0.0304054406107
0.0374618077824
0.043815119472
0.0255924351298
0.0262114865201
0.0265926253588
0.027120144922
0.0310749249741
0.0373770831271
0.0422582785846
0.0324401678412
0.037200191607
0.0409060376025
1.50799102894e-06
3.77777586596e-08
4.9803587005e-08
2.13067383249e-08
4.06421112328e-27
3.55555447522e-08
1.02375109484e-25
1.19333168775e-06
7.13167078463e-06
7.71367164154e-05
3.98990634171e-07
3.91091439305e-11
1.21016113696e-08
3.21026510025e-08
2.22602663762e-25
2.4759271197e-09
8.82108866323e-11
9.37345787419e-07
1.2301095351e-05
8.0755172735e-05
2.39287872029e-06
1.13685620089e-07
3.06140966755e-09
1.80816673407e-07
1.00887405235e-06
7.79862763016e-07
1.53227888283e-07
2.2177234636e-06
5.90528161013e-06
6.0785744685e-05
1.74086923103e-07
2.86784884629e-07
7.01970234466e-07
1.4983360594e-06
6.97858273901e-07
2.65144110439e-07
3.03359965303e-06
5.395624254e-06
5.51664670395e-05
7.26282562437e-07
2.29325075856e-08
1.75117984872e-08
7.91874934624e-07
4.70679633357e-06
1.75014751157e-05
6.23303235848e-05
5.79525008948e-06
1.7046541737e-05
6.74533310398e-05
0.99999063947
0.99999574219
0.99999794601
0.999899360888
0.999947570646
0.999895041552
0.999953732263
0.999961938303
0.999999160843
1
0.999882449551
0.999847806298
0.999959405851
0.999938173781
1.00000116783
1
1.0000011389
0.999991566637
0.999993508583
0.99999502668
1
1.00000005497
1.00000079104
0.99999921025
0.999996475432
0.999994436365
1.00000035706
0.999999466752
0.999739432543
0.999699712972
0.999733205256
0.999565028564
0.999617147373
0.999521938382
0.999597691779
0.999889027445
0.99977785218
0.999890458297
0.999833391145
0.999948025357
0.999805940666
0.999930619086
0.999901239478
0.999986335985
0.999985723238
0.999642455312
0.999657398438
0.999920317601
0.999935521624
0.999919519023
0.999986320308
0.999988550086
0.999832523548
0.999953062511
0.999964064713
0.999984735694
0.99964490983
0.999633874743
0.999752749656
0.999589716857
0.999841747624
0.999740743089
0.99987272731
0.999976116629
0.999888024474
0.999966476591
0.999966092925
0.999995088507
0.999975757885
0.999999173648
0.999802716196
0.999943988104
0.999950750394
0.999918827248
0.999955580115
0.999999788284
0.999998631845
0.999992314033
0.999978143939
0.999997823366
0.999993612884
1.00000017698
0.999998869276
1.00000019822
0.999872535677
0.99995450047
0.924768703019
0.929823476765
0.999903935254
0.999941786565
0.999963428393
0.925152227266
0.929892271001
0.929711870476
0.932474379892
0.999999994371
0.999995266469
1
0.931081706723
0.936032929036
0.933432003046
0.937730128557
1.00000292432
1.00000474889
1.00000987984
0.937549565114
0.940045534582
0.938715512581
0.941078080852
1.00001101685
1.00001254088
1.00001280023
0.940260207841
0.941072368368
0.941340351896
0.942196518134
1.00001613172
1.00001295482
1.00001232704
0.941412069673
0.943459368671
0.942420895243
0.943330439763
1.00001571943
1.00001243981
1.00001040136
0.943120772547
0.931903685182
0.942955625398
0.929190096321
1.00001345852
1.00000915588
1.00001084739
0.923043846751
0.892675814609
0.920036032027
0.892908791436
1.00001333728
1.00001730232
1.00002263866
0.891998034152
0.88129199185
0.892812854264
0.877197742981
0.999998291004
0.99999742004
0.944117574051
0.938591513389
0.946943828957
0.943314850632
1.0000055808
1.00000134008
0.999999215396
0.933015718286
0.932139068367
0.9407642517
0.939542826427
1.00000383263
1.00000003781
0.999999893034
0.931786491207
0.933597908341
0.938716242035
0.938856504054
1.00000496622
1.00000161849
1.00000256543
0.934378894885
0.938453943535
0.939218067621
0.941902402488
1.00000932952
1.00000457557
1.00000620747
0.939532034879
0.941495324633
0.94260408626
0.943071662639
1.00001056099
1.00000683533
1.00000713486
0.941777780175
0.942450327836
0.94344342964
0.943498143952
1.00001155716
1.00000770582
1.00000786709
0.942977799753
0.943516844132
0.94354150411
0.942984987669
1.00000992394
1.0000088744
1.00000787749
0.942988118646
0.928505587027
0.942127686867
0.927505037391
1.00000782638
1.00000574539
1.0000037545
0.919196358476
0.893055892746
0.918408334309
0.892600857143
1.00001783798
1.00000821656
1.00000923805
0.89315687199
0.877020687418
0.892344632779
0.876781009096
1.00000186926
1.00000240908
1.00000230839
0.948235877953
0.944752040449
0.950297340876
0.948216797711
1.00000340319
1.00000450787
1.00000550181
0.942842696358
0.94160903424
0.947812252356
0.946668679671
1.00000537026
1.00000790733
1.00000842404
0.940900810015
0.940696653672
0.945986347574
0.944278666737
1.0000058309
1.00000814069
1.00000764764
0.940966680476
0.942720851753
0.944426475757
0.944324368519
1.00000556481
1.00000664539
1.00000608727
0.943387370242
0.943594497983
0.944732078945
0.943705196909
1.0000056714
1.0000047566
1.00000468698
0.943855400686
0.943973147248
0.942399868765
0.941587335087
1.00000687049
1.00000501797
1.00000562796
0.944047938974
0.943441295766
0.942122040776
0.94251622282
1.00000576954
1.00000772826
1.00000718998
0.94252941992
0.927688662319
0.941985240301
0.930036907737
1.0000041051
1.00000527336
1.00000339016
0.918614671565
0.89171430426
0.921315559715
0.890794929937
1.00000746805
1.00000756476
1.00000975003
0.891345527489
0.877355799929
0.888621282059
0.874894528206
0.950134695341
0.948085372565
1.00000816874
1.00000781486
0.948024829806
0.947189483337
0.945204477097
1.000006528
1.00000883415
1.00000776553
0.946464378887
0.944193543399
0.944149930874
0.942364118933
1.00000359265
1.00000647062
1.00000540554
0.944178004821
0.944305103081
0.942117914965
0.944238281725
1.0000016411
1.0000047167
1.00000446272
0.944552058116
0.94351068718
0.944472896679
0.945840139172
1.00000184925
1.00000376902
1.00000367402
0.942514899779
0.942369901193
0.945850540654
0.946075235519
1.00000496605
1.0000045328
1.00000493238
0.94302280788
0.943655492958
0.94603855987
0.945530225463
1.00000536836
1.00000710449
1.00000746901
0.943221212264
0.93077009572
0.944646813913
0.92837159789
1.00000395699
1.00000554324
1.00000294332
0.921656814238
0.890071441621
0.918389182193
0.890675349577
1.0000080881
1.00000822291
1.00001046352
0.888234535563
0.875736107799
0.891381690901
0.88247172585
1.00000456394
1.00000592358
0.941773189678
0.944455273516
0.947082138179
1.00000350812
1.00000602037
1.00000595139
0.944800735456
0.946129776319
0.947571290603
0.948578419569
1.00000357856
1.00000588413
1.00000598834
0.946279793921
0.947039746716
0.948557688232
0.948655108108
1.00000511632
1.00000636393
1.00000677174
0.947071337264
0.94626874958
0.948513427776
0.944312339349
1.0000047047
1.00000690443
1.00000532374
0.944716073136
0.926199480632
0.940347672929
0.919069836864
1.00000416761
1.00000411168
1.00000252611
0.916424035046
0.893389630332
0.911477138343
0.898055153651
1.0000082249
1.0000080395
1.00000907471
0.894266266352
0.884431325657
0.898875105032
0.891500689018
1.00000593483
0.942175055025
1.00000521551
0.938032541841
0.918356629506
1.00000561032
0.911162228735
0.898308084567
1.00000686283
0.89911907823
0.892107691708
0.000103336668688
1.70365177352e-05
6.47677517483e-05
3.45461017245e-06
0.0242076279227
0.0234308904835
7.60108917712e-07
3.43489244721e-07
3.32373395055e-07
3.13141533951e-07
0.0260316998422
0.024597126605
0.0254195980545
1.28145997139e-06
1.55892998461e-06
1.39375032158e-06
4.51166039008e-06
0.0270332969304
0.0261727660439
0.0266557974491
4.82180806246e-07
2.68825483372e-07
4.82194814791e-06
3.24291005183e-06
0.0278002387487
0.027090759495
0.0275087973889
1.87928779791e-06
1.42921696011e-05
3.68391799523e-06
3.59575543118e-06
0.0281158239721
0.0278794144526
0.0277246001806
2.5502306445e-05
1.35207488408e-05
3.48498543622e-06
2.00602095534e-06
0.0279088904352
0.0275195166422
0.0278596211649
1.15590084929e-05
1.59661963117e-05
2.31016423207e-06
4.54738333234e-06
0.032762345486
0.0294081853661
0.0326422663269
3.03017393115e-05
0.000135568228151
2.95711581594e-05
0.000152971001311
0.040999813006
0.0365592421163
0.0410144748622
0.000275687671851
0.000435915342695
0.000318718364711
0.000471500448957
0.0451192640909
0.0438668405214
0.045503057834
0.000792129045317
0.00113745689972
0.00081219135231
0.00114677673843
0.0195543669633
0.018863405854
0.0194533398532
3.46997081296e-05
2.8877495093e-06
3.63909861326e-05
1.09472381644e-05
0.0220928978806
0.0202420429894
0.0213208612914
7.45143337519e-07
4.79898466386e-07
2.59869994637e-06
3.12937812867e-07
0.0249082131033
0.0226959797081
0.0240556484371
9.54428056992e-07
3.04434819384e-06
5.87609172415e-07
6.10178444543e-07
0.0263287660026
0.0250698579517
0.0256101403082
4.48868920266e-06
4.84625090052e-06
3.45288346119e-06
5.45846788351e-06
0.0271107484733
0.0261139851059
0.0266585080434
4.70072656643e-06
4.73958511856e-06
1.02361713337e-05
7.5893568292e-06
0.0274039082054
0.0269054520259
0.0269549454264
2.32503577584e-06
1.34297679573e-06
6.6688866764e-06
2.01104378056e-06
0.0277629107042
0.0271310146305
0.0278346751256
2.83395132661e-07
2.64410440588e-06
2.09874113296e-06
5.19888824427e-06
0.0328107235522
0.029748288152
0.0331129748219
3.11247426586e-05
0.000168578387276
5.35443912645e-05
0.00019777673749
0.0411107536727
0.0369533700037
0.0412021416407
0.000358340446536
0.000522114781794
0.000374132919837
0.000535804510551
0.0456866813602
0.0438976973289
0.0455673741936
0.000840697331935
0.00114085190736
0.000851954224476
0.0011225787369
0.0191845754585
0.0184460580832
0.0188530407858
5.78308452655e-05
2.69882005716e-05
8.07104798628e-05
4.15867935548e-05
0.0207409382576
0.0193851915323
0.0202360880607
5.77161199159e-06
4.90495883804e-07
7.63116732878e-06
5.61581802795e-07
0.0232359724459
0.0215415600181
0.0228717874746
2.20427193535e-08
3.77686703162e-08
1.299021099e-07
3.68855410512e-08
0.0250903262288
0.0239913441931
0.0250686121111
1.69846203653e-07
3.8060244888e-06
2.56604984141e-07
4.01415536933e-05
0.0262864265831
0.0256496244051
0.0264663538245
1.62958851166e-05
3.58823551487e-05
9.59974398057e-05
0.000131276842162
0.0269127238334
0.0272258244178
0.0275283000001
3.12101521087e-05
2.16800229424e-05
0.00012668239879
9.23559836185e-05
0.0279060405319
0.0276540848875
0.0283116362276
1.21321628226e-05
1.93695523556e-05
6.23589534047e-05
5.47148196886e-05
0.0335196129434
0.0303220136135
0.0338665246096
7.2750770626e-05
0.000213098649176
0.000101578843086
0.000221227148102
0.0412511224383
0.0373518690798
0.0411691404804
0.000350663157679
0.000490011804694
0.000347446689094
0.000485560499949
0.0456028182256
0.0440030778201
0.0453912901633
0.00076580808222
0.000989477463501
0.000757064990101
0.000975321626809
0.0203167202961
0.021139469953
1.20693075953e-05
1.55369342209e-06
1.4464887579e-05
0.023185147107
0.0226348003195
0.0240105667896
1.47343340349e-07
8.35072147806e-07
1.65723706176e-05
3.06107905906e-05
0.0253662549447
0.0251531430953
0.0257374809297
2.57024857489e-05
7.61666533899e-05
4.76205410436e-05
5.36176853871e-05
0.0268355742419
0.0262074548644
0.0266691128005
0.000109215288338
0.000126734843606
6.35548311445e-05
6.17800858969e-05
0.0275692441459
0.0269767277514
0.027152765014
0.000109643186538
7.68978736005e-05
5.4684835378e-05
4.52483971127e-05
0.0282940561173
0.0274288793216
0.028326610781
4.37512688285e-05
4.46143864913e-05
4.27168110089e-05
5.24983911544e-05
0.0341159852709
0.030638277379
0.034221163717
9.03176299043e-05
0.000219547006449
0.00011658196986
0.000250810006499
0.0410422320622
0.0374333198083
0.0407966520853
0.000344984987688
0.000481453527773
0.000363942789382
0.000479490459705
0.0451410498044
0.0431773166996
0.0443426225287
0.000734039364221
0.000934246496589
0.000708749918141
0.000896743140257
0.025851675589
0.0253999566974
4.57714108077e-05
2.1503836013e-05
6.98661425681e-05
3.74940369829e-05
0.0264832706358
0.0256766695677
0.0259828948276
2.94029194862e-06
1.30237155771e-06
1.65487323429e-05
1.20085334871e-05
0.0267181556226
0.0262500157462
0.0265261963398
1.1172182453e-06
3.51539021023e-06
1.09964139464e-05
1.11164653568e-05
0.0283938606362
0.0271854582267
0.0289328515466
1.69418440599e-05
5.66107286688e-05
3.23895805914e-05
0.000122646807709
0.0343819175169
0.0317449058768
0.0347131798462
0.000144423996344
0.000274247617888
0.000229241911119
0.000325546600513
0.0403692716447
0.0372875096231
0.0398411824004
0.000413463958168
0.000532566807003
0.000433272076391
0.000521014055439
0.0430706108065
0.0414522253127
0.0419282709562
0.000727451965058
0.000896003584526
0.0006930206048
0.000849474450661
0.0298330463758
0.000204111134223
0.0348656591809
0.0002702960548
0.000323242506921
0.000266674708524
0.000293565922654
0.0395536809206
0.000416117687995
0.000502615010707
0.000361894330712
0.000454742666137
0.040929216996
0.000714886375134
0.000898681842731
0.0006835167653
0.000887886316008
0.999932658762
0.999913807787
0.923787188424
0.925312944326
0.999934813235
0.924329980144
0.999914711699
0.999958612003
0.99995555111
0.926691661106
0.929631520613
0.999954240793
0.99994648801
0.925924520956
0.999923183171
0.999908054514
0.927091961396
0.927491485131
0.999927190328
0.928043848026
0.999910824731
0.999924760189
0.999932032213
0.928996305111
0.930311551565
0.999931787468
0.928741389775
0.999920264698
0.999944540688
0.999948880384
0.928777536746
0.930486033085
0.999949784975
0.999943580863
0.92932258746
0.999943410309
0.999940164463
0.931384629047
0.931735206618
0.999943591372
0.999942844009
0.929907498441
0.999952740824
0.999936396963
0.93296234731
0.931765054637
0.999944690954
0.932846924877
0.99993550128
0.999951278013
0.999923122272
0.934635843424
0.936267555328
0.999941356894
0.93424447816
0.999929258769
0.999944246866
0.999938241428
0.932803696916
0.934989032446
0.999944406308
0.999936802498
0.933863264256
0.999941330246
0.999947719062
0.936770448561
0.936501037062
0.999937364042
0.99994041606
0.935110918932
0.9998589804
0.999916519216
0.939106112246
0.938187714796
0.999914613033
0.939451398889
0.999917997138
0.999816656891
0.99992381883
0.93984487897
0.939798518813
0.999814288863
0.939752785147
0.999920505367
0.999902735389
0.999953283134
0.938360548237
0.939658934555
0.999924015975
0.999959572195
0.939649371349
0.999898904374
0.999965822207
0.940582554214
0.940491912447
0.999894673988
0.999967257906
0.940296910447
0.99980673002
0.999927493176
0.940343695536
0.939910976841
0.9998074229
0.940333461241
0.999919457793
0.99982117571
0.999918875318
0.940861888611
0.941807888043
0.9998660646
0.940900097149
0.999910400018
0.999892061936
0.999962081111
0.940719287601
0.941541219926
0.999889656313
0.999957391628
0.941001356473
0.999901124783
0.999956914844
0.942196602174
0.941810802361
0.999922935325
0.999955950423
0.94142831014
0.99997683849
0.999942261229
0.94193686219
0.942769840333
0.999938331784
0.943375779898
0.999975172286
0.999985155391
1
0.94280127094
0.943183519335
0.999987346367
0.943394474339
0.999998695578
0.999980891907
0.999956415221
0.942903734952
0.942890745571
0.999955344487
0.999960758684
0.943133821872
0.999999799678
0.9999704669
0.943147213354
0.943286528906
1
0.999968426791
0.943209694109
0.999959985517
1
0.941915216054
0.942729310753
0.999979229459
0.941797677579
1
0.999939653492
0.999922790077
0.938047573631
0.93139558006
0.999883406954
0.937968129008
0.99997845401
0.999989054921
0.999968745358
0.942704936008
0.941318469755
0.999997308973
0.999959123298
0.941526315256
0.999966862527
0.999874651951
0.930411254022
0.936488874554
0.999899698892
0.999931948651
0.937350635748
0.999703521714
0.999845538546
0.912098868922
0.921935433124
0.999809247697
0.911157978134
0.999724722279
0.999574728675
0.999505266363
0.901688943107
0.893711731651
0.999478438999
0.901676507953
0.999606331886
0.999691332962
0.999792178647
0.920854989083
0.910199044659
0.99980906641
0.999684015686
0.910558802229
0.999571711811
0.99946971959
0.89474018485
0.901324638498
0.999505771457
0.99957131107
0.901771784688
0.999351741266
0.999435192939
0.890590527778
0.891865322624
0.999430939754
0.890185834785
0.999346440454
0.999230354621
0.999314299841
0.880401434946
0.880151019737
0.882467713971
0.999339840481
0.999212496475
0.999406260869
0.999476849772
0.892734621807
0.892502630031
0.999473479548
0.999464136424
0.890829552125
0.999267518611
0.999408826909
0.877969298036
0.885656573752
0.999344808379
0.88369084451
0.999359263104
0.999964276895
0.999928382085
0.935521327347
0.94382110481
0.999941359336
0.946270738891
0.999933335397
0.999980228663
0.999943650373
0.935705032098
0.934933245595
0.999952763969
0.999937426471
0.939706377755
0.999974412441
0.999908605769
0.944885511578
0.942258481645
0.999946365008
0.947027609757
0.999931808292
0.999972100076
0.99993397557
0.937865984714
0.942845058685
0.999924414836
0.999963630701
0.941485052671
0.999966503901
0.999931778715
0.931006688359
0.936352128173
0.999951582158
0.9999385715
0.9364728038
0.99996167919
0.999968591328
0.932089090533
0.934223432134
0.999959995469
0.999959999726
0.93442569437
0.99994358238
0.999914940076
0.939034698756
0.94001499756
0.999927368713
0.999930621399
0.93881400876
0.999945442099
0.999934811326
0.936611480362
0.940134931923
0.999950368088
0.999941802915
0.936843493535
0.999955126885
0.999967263259
0.932213172312
0.934474962089
0.999963271975
0.999958220707
0.934361320134
0.999950405606
0.999943377449
0.933032702317
0.935065102208
0.999957079423
0.999950400031
0.934421251577
0.999951175315
0.999929419369
0.93666602654
0.93867471931
0.999951785442
0.99993062771
0.936445182139
0.999949933841
0.99993259571
0.936896996221
0.938736442751
0.999947788956
0.999932767247
0.936449473329
0.999956365283
0.999930220907
0.935711732627
0.936064447671
0.999926125419
0.999950551901
0.936988881425
0.999961053917
0.999929782863
0.93709549962
0.939076063462
0.99992674557
0.999959410118
0.937933255229
0.999935315126
0.999934821074
0.937595633235
0.939886513089
0.999941412333
0.999941928585
0.938462259254
0.999932963975
0.99996986967
0.940449867761
0.940721201148
0.999932367907
0.999955372892
0.939476613109
0.999943902776
0.99993690128
0.940392655626
0.940322940119
0.999944561013
0.999953604523
0.941458506069
0.999937907724
0.999943241249
0.940982835552
0.941963485714
0.999946766659
0.999938753233
0.941881018377
0.999932568083
0.999979909657
0.941204273473
0.942681162908
0.99993324604
0.999982915426
0.94203523592
0.999937703154
0.99997867504
0.942667946756
0.942729454532
0.999940919633
0.999981291595
0.942523269082
0.999937926763
0.999937295836
0.941936615279
0.942032110013
0.999932540943
0.999937610073
0.942219499024
0.999939387764
0.999934034495
0.942141210728
0.943000261845
0.999931634426
0.999942960891
0.942563383659
0.999939488001
0.999975978345
0.942728031602
0.94356722954
0.999940419253
0.999972408654
0.942882851927
0.999938957527
0.99997083965
0.943362958234
0.94359742893
0.999941905014
0.999971465566
0.943090779203
0.999961794721
0.999938953966
0.943419496884
0.943332670296
0.999952361646
0.999953155049
0.943254796031
0.999967119138
0.999984490428
0.943637140996
0.943117091822
0.999974606893
0.999970250564
0.94328119556
0.999948587157
0.999970939027
0.943557245737
0.943503535479
0.999945521343
0.999972993928
0.943543338834
0.999952336898
0.999972178515
0.943263972378
0.943398445228
0.999955768623
0.999975709919
0.943481314138
0.999948099664
0.999982435217
0.941204224449
0.9425665734
0.999968569009
0.999965575712
0.940805305386
0.99992072862
0.999870510301
0.936032930277
0.928062642648
0.999933318539
0.999859227978
0.935831384965
0.999931421296
0.999964609442
0.942484455169
0.940071350701
0.999950452512
0.999946169912
0.940577546902
0.999900517967
0.999843650868
0.927672498534
0.93489545924
0.999836922917
0.999906712884
0.935411358457
0.999667960852
0.999787848347
0.909603190968
0.918232558928
0.999666247105
0.999774725358
0.908431334559
0.99954302939