/*--------------------------------*- C++ -*----------------------------------*\
| =========                 |                                                 |
| \\      /  F ield         | OpenFOAM: The Open Source CFD Toolbox           |
|  \\    /   O peration     | Version:  v1906                                 |
|   \\  /    A nd           | Web:      www.OpenFOAM.com                      |
|    \\/     M anipulation  |                                                 |
\*---------------------------------------------------------------------------*/
FoamFile
{
    version     2.0;
    format      ascii;
    class       volVectorField;
    location    "3.05";
    object      force.turbine;
}
// * * * * * * * * * * * * * * * * * * * * * * * * * * * * * * * * * * * * * //

dimensions      [1 -2 -2 0 0 0 0];


internalField   nonuniform List<vector> 
28582
(
(0 0 0)
(0 0 0)
(0 0 0)
(0 0 0)
(0 0 0)
(0 0 0)
(0 0 0)
(0 0 0)
(0 0 0)
(0 0 0)
(0 0 0)
(0 0 0)
(0 0 0)
(0 0 0)
(0 0 0)
(0 0 0)
(0 0 0)
(0 0 0)
(0 0 0)
(0 0 0)
(0 0 0)
(0 0 0)
(0 0 0)
(0 0 0)
(0 0 0)
(0 0 0)
(0 0 0)
(0 0 0)
(0 0 0)
(0 0 0)
(0 0 0)
(0 0 0)
(0 0 0)
(0 0 0)
(0 0 0)
(0 0 0)
(0 0 0)
(0 0 0)
(0 0 0)
(0 0 0)
(0 0 0)
(0 0 0)
(0 0 0)
(0 0 0)
(0 0 0)
(0 0 0)
(0 0 0)
(0 0 0)
(0 0 0)
(0 0 0)
(0 0 0)
(0 0 0)
(0 0 0)
(0 0 0)
(0 0 0)
(0 0 0)
(0 0 0)
(0 0 0)
(0 0 0)
(0 0 0)
(0 0 0)
(0 0 0)
(0 0 0)
(0 0 0)
(0 0 0)
(0 0 0)
(0 0 0)
(0 0 0)
(0 0 0)
(0 0 0)
(0 0 0)
(0 0 0)
(0 0 0)
(0 0 0)
(0 0 0)
(0 0 0)
(0 0 0)
(0 0 0)
(0 0 0)
(0 0 0)
(0 0 0)
(0 0 0)
(0 0 0)
(0 0 0)
(0 0 0)
(0 0 0)
(0 0 0)
(0 0 0)
(0 0 0)
(0 0 0)
(0 0 0)
(0 0 0)
(0 0 0)
(0 0 0)
(0 0 0)
(0 0 0)
(0 0 0)
(0 0 0)
(0 0 0)
(0 0 0)
(0 0 0)
(0 0 0)
(0 0 0)
(0 0 0)
(0 0 0)
(0 0 0)
(0 0 0)
(0 0 0)
(0 0 0)
(0 0 0)
(0 0 0)
(0 0 0)
(0 0 0)
(0 0 0)
(0 0 0)
(0 0 0)
(0 0 0)
(0 0 0)
(0 0 0)
(0 0 0)
(0 0 0)
(0 0 0)
(0 0 0)
(0 0 0)
(0 0 0)
(0 0 0)
(0 0 0)
(0 0 0)
(0 0 0)
(0 0 0)
(0 0 0)
(0 0 0)
(0 0 0)
(0 0 0)
(0 0 0)
(0 0 0)
(0 0 0)
(0 0 0)
(0 0 0)
(0 0 0)
(0 0 0)
(0 0 0)
(0 0 0)
(0 0 0)
(0 0 0)
(0 0 0)
(0 0 0)
(0 0 0)
(0 0 0)
(0 0 0)
(0 0 0)
(0 0 0)
(0 0 0)
(0 0 0)
(0 0 0)
(0 0 0)
(0 0 0)
(0 0 0)
(0 0 0)
(0 0 0)
(0 0 0)
(0 0 0)
(0 0 0)
(0 0 0)
(0 0 0)
(0 0 0)
(0 0 0)
(0 0 0)
(0 0 0)
(0 0 0)
(0 0 0)
(0 0 0)
(0 0 0)
(0 0 0)
(0 0 0)
(0 0 0)
(0 0 0)
(0 0 0)
(0 0 0)
(0 0 0)
(0 0 0)
(0 0 0)
(0 0 0)
(0 0 0)
(0 0 0)
(0 0 0)
(0 0 0)
(0 0 0)
(0 0 0)
(0 0 0)
(0 0 0)
(0 0 0)
(0 0 0)
(0 0 0)
(0 0 0)
(0 0 0)
(0 0 0)
(0 0 0)
(0 0 0)
(0 0 0)
(0 0 0)
(0 0 0)
(0 0 0)
(0 0 0)
(0 0 0)
(0 0 0)
(0 0 0)
(0 0 0)
(0 0 0)
(0 0 0)
(0 0 0)
(0 0 0)
(0 0 0)
(0 0 0)
(0 0 0)
(0 0 0)
(0 0 0)
(-0.0012419043967 1.91029275613e-05 0)
(0 0 0)
(0 0 0)
(0 0 0)
(0 0 0)
(-2.481536065e-05 1.30137126965e-07 0)
(0 0 0)
(-2.48537860933e-06 7.41226630177e-09 0)
(0 0 0)
(0 0 0)
(0 0 0)
(0 0 0)
(0 0 0)
(0 0 0)
(0 0 0)
(0 0 0)
(0 0 0)
(0 0 0)
(0 0 0)
(0 0 0)
(-0.0163746662288 0.000468689818808 0)
(0 0 0)
(0 0 0)
(0 0 0)
(-0.0308096127982 0.000604827803942 0)
(0 0 0)
(0 0 0)
(-0.0290659329165 0.000814280667903 0)
(-0.130263998603 0.0036493394549 0)
(-0.0833713306429 0.00163667421447 0)
(-0.793059797104 0.0155743070458 0)
(-0.00616227719285 4.5758922134e-05 0)
(-0.0822412360936 0.00161448917082 0)
(0 0 0)
(0 0 0)
(0 0 0)
(0 0 0)
(0 0 0)
(-0.0163745590724 0.000468686751686 0)
(0 0 0)
(0 0 0)
(0 0 0)
(-0.0302609987707 0.000594057885488 0)
(0 0 0)
(0 0 0)
(0 0 0)
(0 0 0)
(0 0 0)
(0 0 0)
(0 0 0)
(0 0 0)
(-1.55067245906e-05 9.57867941747e-08 0)
(0 0 0)
(-9.35472587069e-06 5.77852012719e-08 0)
(-0.00013809900531 1.5419384652e-06 0)
(-0.000625659133363 6.98576996751e-06 0)
(-8.27595932885e-05 9.24048656032e-07 0)
(-0.000371018259236 4.14258831136e-06 0)
(0 0 0)
(0 0 0)
(-0.000117285840761 8.0686429243e-07 0)
(0 0 0)
(0 0 0)
(0 0 0)
(0 0 0)
(0 0 0)
(0 0 0)
(-0.00597042316864 9.18368286669e-05 0)
(-0.000250529067481 3.07310138375e-06 0)
(-0.00127997187254 1.96884800686e-05 0)
(-2.92180725579e-05 2.81849921791e-07 0)
(-0.000133155182164 1.48673842189e-06 0)
(-3.67512120729e-06 1.09604938972e-08 0)
(-2.86920526668e-05 2.76775710791e-07 0)
(0 0 0)
(0 0 0)
(0 0 0)
(0 0 0)
(0 0 0)
(-0.000134604917999 9.26010345439e-07 0)
(0 0 0)
(0 0 0)
(0 0 0)
(0 0 0)
(0 0 0)
(0 0 0)
(0 0 0)
(0 0 0)
(0 0 0)
(0 0 0)
(0 0 0)
(0 0 0)
(0 0 0)
(0 0 0)
(0 0 0)
(0 0 0)
(0 0 0)
(0 0 0)
(0 0 0)
(0 0 0)
(-0.00522119633305 4.06722318924e-05 0)
(0 0 0)
(0 0 0)
(0 0 0)
(0 0 0)
(0 0 0)
(-0.00485187149321 3.60283062436e-05 0)
(0 0 0)
(0 0 0)
(0 0 0)
(0 0 0)
(0 0 0)
(0 0 0)
(0 0 0)
(0 0 0)
(0 0 0)
(0 0 0)
(0 0 0)
(0 0 0)
(0 0 0)
(0 0 0)
(0 0 0)
(0 0 0)
(0 0 0)
(0 0 0)
(0 0 0)
(0 0 0)
(0 0 0)
(0 0 0)
(-0.0367455397193 0.000844349642863 0)
(-0.00908236656518 0.000132848818813 0)
(-0.0149140981758 0.000218150226826 0)
(-0.0104142959511 0.000170316717102 0)
(-0.019668138798 0.000451940183672 0)
(0 0 0)
(0 0 0)
(0 0 0)
(0 0 0)
(0 0 0)
(0 0 0)
(0 0 0)
(0 0 0)
(0 0 0)
(0 0 0)
(-0.00545356117512 4.04962440597e-05 0)
(0 0 0)
(-0.00811053165096 0.000132640663491 0)
(0 0 0)
(0 0 0)
(-0.132180390932 0.00302590782038 0)
(-0.102939514826 0.00235651809427 0)
(-0.201502401731 0.00395715466412 0)
(-0.0444602980977 0.000872806310068 0)
(-0.246941820219 0.00565305624921 0)
(-0.053464036693 0.00122851210331 0)
(-0.106418419618 0.00208911483108 0)
(-0.27982468147 0.00640581924466 0)
(-0.976665889907 0.0223580890731 0)
(-0.424661483303 0.00833960863437 0)
(-0.421463825127 0.00827681222173 0)
(-0.5227803002 0.0119676223347 0)
(-0.227546461216 0.00446861443122 0)
(-0.522744852591 0.0119668108588 0)
(-0.0624375956044 0.00142933764603 0)
(-0.00919032855903 0.000150299799104 0)
(-0.020975826283 0.000411779369955 0)
(-0.0208697476095 0.000409696924729 0)
(-0.0252547076403 0.000580309978833 0)
(-0.0252544743813 0.000580304618938 0)
(-0.0502492290493 0.000986449620603 0)
(-0.132180562012 0.0030259117368 0)
(-0.102936643647 0.00235645236649 0)
(-0.199171874816 0.0039113871925 0)
(-0.0439756667717 0.000863292444947 0)
(-0.053463444761 0.00122849850172 0)
(-0.105815093847 0.00207727085875 0)
(-0.246927261512 0.00565272296753 0)
(0 0 0)
(0 0 0)
(0 0 0)
(0 0 0)
(0 0 0)
(0 0 0)
(0 0 0)
(0 0 0)
(0 0 0)
(0 0 0)
(0 0 0)
(0 0 0)
(0 0 0)
(0 0 0)
(0 0 0)
(0 0 0)
(0 0 0)
(0 0 0)
(0 0 0)
(0 0 0)
(0 0 0)
(0 0 0)
(0 0 0)
(-0.00539717811396 4.00775631039e-05 0)
(0 0 0)
(-0.00811044885574 0.000132639309447 0)
(0 0 0)
(0 0 0)
(0 0 0)
(-0.0367436006561 0.000844305086506 0)
(-0.0146758413638 0.000214665217075 0)
(-0.00887586533118 0.000129828301548 0)
(-0.0196681328747 0.000451940047565 0)
(0 0 0)
(-0.0104138645463 0.000170309661854 0)
(0 0 0)
(0 0 0)
(0 0 0)
(0 0 0)
(0 0 0)
(0 0 0)
(0 0 0)
(0 0 0)
(0 0 0)
(0 0 0)
(0 0 0)
(0 0 0)
(0 0 0)
(0 0 0)
(0 0 0)
(0 0 0)
(0 0 0)
(0 0 0)
(0 0 0)
(0 0 0)
(0 0 0)
(0 0 0)
(0 0 0)
(0 0 0)
(0 0 0)
(0 0 0)
(0 0 0)
(0 0 0)
(0 0 0)
(0 0 0)
(0 0 0)
(0 0 0)
(0 0 0)
(0 0 0)
(0 0 0)
(0 0 0)
(-0.015285340246 0.000306955189159 0)
(0 0 0)
(0 0 0)
(0 0 0)
(0 0 0)
(0 0 0)
(0 0 0)
(0 0 0)
(-0.00341076837823 6.84939318243e-05 0)
(0 0 0)
(0 0 0)
(0 0 0)
(0 0 0)
(0 0 0)
(0 0 0)
(0 0 0)
(0 0 0)
(0 0 0)
(0 0 0)
(0 0 0)
(0 0 0)
(0 0 0)
(0 0 0)
(0 0 0)
(0 0 0)
(0 0 0)
(0 0 0)
(0 0 0)
(0 0 0)
(0 0 0)
(0 0 0)
(0 0 0)
(0 0 0)
(0 0 0)
(0 0 0)
(0 0 0)
(-0.327910657227 0.00907768663167 0)
(-0.0078460710838 0.000157562225958 0)
(0 0 0)
(0 0 0)
(0 0 0)
(0 0 0)
(0 0 0)
(0 0 0)
(-0.0719905744113 0.00201164944995 0)
(0 0 0)
(0 0 0)
(0 0 0)
(0 0 0)
(0 0 0)
(0 0 0)
(0 0 0)
(0 0 0)
(0 0 0)
(0 0 0)
(0 0 0)
(0 0 0)
(0 0 0)
(0 0 0)
(0 0 0)
(0 0 0)
(0 0 0)
(0 0 0)
(0 0 0)
(0 0 0)
(0 0 0)
(0 0 0)
(0 0 0)
(0 0 0)
(0 0 0)
(0 0 0)
(0 0 0)
(-1.54681318266 0.0545294489648 0)
(-0.044204243091 0.00159641821414 0)
(0 0 0)
(0 0 0)
(0 0 0)
(0 0 0)
(0 0 0)
(0 0 0)
(-0.339401305262 0.0118326146533 0)
(-0.00670208218269 0.000264029438077 0)
(0 0 0)
(0 0 0)
(0 0 0)
(0 0 0)
(0 0 0)
(0 0 0)
(0 0 0)
(0 0 0)
(0 0 0)
(0 0 0)
(0 0 0)
(0 0 0)
(0 0 0)
(0 0 0)
(0 0 0)
(0 0 0)
(0 0 0)
(0 0 0)
(0 0 0)
(0 0 0)
(0 0 0)
(0 0 0)
(0 0 0)
(0 0 0)
(0 0 0)
(0 0 0)
(0 0 0)
(0 0 0)
(0 0 0)
(0 0 0)
(0 0 0)
(0 0 0)
(0 0 0)
(-2.61590889515 0.073284557851 0)
(-0.079008071802 0.00221340720979 0)
(0 0 0)
(0 0 0)
(0 0 0)
(0 0 0)
(0 0 0)
(0 0 0)
(-2.61641856424 0.0732988362053 0)
(-0.583804006779 0.0163552402715 0)
(-0.0163745971728 0.000468687842228 0)
(0 0 0)
(0 0 0)
(0 0 0)
(0 0 0)
(0 0 0)
(0 0 0)
(-0.0479213921848 0.00134251542337 0)
(-0.0790091109514 0.00221343632151 0)
(-0.0163746081246 0.000468688155699 0)
(0 0 0)
(0 0 0)
(0 0 0)
(0 0 0)
(0 0 0)
(0 0 0)
(0 0 0)
(0 0 0)
(0 0 0)
(0 0 0)
(0 0 0)
(0 0 0)
(0 0 0)
(0 0 0)
(0 0 0)
(0 0 0)
(0 0 0)
(0 0 0)
(0 0 0)
(0 0 0)
(0 0 0)
(0 0 0)
(0 0 0)
(0 0 0)
(0 0 0)
(0 0 0)
(-0.0359164382481 0.000553439011745 0)
(-0.0011262709273 1.73242578058e-05 0)
(0 0 0)
(0 0 0)
(0 0 0)
(0 0 0)
(0 0 0)
(0 0 0)
(-0.0165799837533 0.000255482176706 0)
(-0.0296442154411 0.000456789873883 0)
(-0.00737908146556 0.000113504758562 0)
(-0.000192285778578 1.32282403118e-06 0)
(0 0 0)
(0 0 0)
(0 0 0)
(0 0 0)
(0 0 0)
(0 0 0)
(-0.000456256570634 5.59664677899e-06 0)
(-0.000850724083374 1.30858064296e-05 0)
(-0.000164454553786 1.13135998613e-06 0)
(0 0 0)
(0 0 0)
(0 0 0)
(0 0 0)
(0 0 0)
(0 0 0)
(0 0 0)
(0 0 0)
(0 0 0)
(0 0 0)
(0 0 0)
(0 0 0)
(0 0 0)
(0 0 0)
(0 0 0)
(0 0 0)
(0 0 0)
(0 0 0)
(0 0 0)
(0 0 0)
(0 0 0)
(0 0 0)
(0 0 0)
(0 0 0)
(0 0 0)
(0 0 0)
(-0.00019157939025 1.31666272363e-06 0)
(-0.000191298834176 1.31473455315e-06 0)
(-2.46570939274e-05 1.29307141986e-07 0)
(0 0 0)
(0 0 0)
(0 0 0)
(0 0 0)
(0 0 0)
(0 0 0)
(0 0 0)
(-2.46656825163e-05 1.29352182407e-07 0)
(-2.46558699225e-05 1.29300723039e-07 0)
(-2.47639773792e-06 7.3854822093e-09 0)
(0 0 0)
(0 0 0)
(0 0 0)
(0 0 0)
(0 0 0)
(0 0 0)
(0 0 0)
(0 0 0)
(0 0 0)
(0 0 0)
(0 0 0)
(0 0 0)
(0 0 0)
(0 0 0)
(0 0 0)
(0 0 0)
(0 0 0)
(0 0 0)
(0 0 0)
(0 0 0)
(0 0 0)
(0 0 0)
(0 0 0)
(0 0 0)
(0 0 0)
(0 0 0)
(0 0 0)
(0 0 0)
(0 0 0)
(0 0 0)
(0 0 0)
(0 0 0)
(0 0 0)
(0 0 0)
(0 0 0)
(0 0 0)
(-0.00341073360465 6.84932335127e-05 0)
(-0.00927138244134 0.000186184861132 0)
(-0.00206872960348 4.15435493445e-05 0)
(-0.0881892225196 0.0021228324712 0)
(-0.0180573181652 0.000362621140512 0)
(-0.0534892364835 0.00128755742281 0)
(-0.0109523845193 0.000219942193485 0)
(0 0 0)
(0 0 0)
(0 0 0)
(-0.00244363327699 4.90722419459e-05 0)
(0 0 0)
(0 0 0)
(0 0 0)
(0 0 0)
(0 0 0)
(0 0 0)
(-0.0180581118608 0.000362637079246 0)
(-0.00402931720841 8.0915426545e-05 0)
(-0.00402932331921 8.09155492602e-05 0)
(0 0 0)
(0 0 0)
(0 0 0)
(0 0 0)
(0 0 0)
(0 0 0)
(0 0 0)
(0 0 0)
(-0.0719837135214 0.0020114577345 0)
(-0.198855651662 0.00550500342377 0)
(-0.0436600575668 0.00122000319496 0)
(-0.818204506128 0.0260739951396 0)
(-0.180526351011 0.00581208614896 0)
(-0.496244746812 0.0158139964025 0)
(-0.109492637808 0.00352513990368 0)
(0 0 0)
(-0.00475905032138 9.55696875641e-05 0)
(0 0 0)
(-0.0232626583893 0.000772948785822 0)
(0 0 0)
(-0.0124270485496 0.000402453034696 0)
(0 0 0)
(-0.0152006435978 0.000414820346036 0)
(-0.0152019359516 0.000414855613928 0)
(-0.00288710948508 5.79779856945e-05 0)
(-0.180530916932 0.0058122331498 0)
(-0.0383468953757 0.00127415301057 0)
(-0.0383569708612 0.00127448778892 0)
(-0.00753836186787 0.000244131709814 0)
(0 0 0)
(0 0 0)
(0 0 0)
(-0.00341019484832 6.84824143847e-05 0)
(0 0 0)
(0 0 0)
(0 0 0)
(-0.339369143141 0.0118314933789 0)
(-0.922490801648 0.0321609787819 0)
(-0.205859973427 0.00717693686008 0)
(-2.27367691647 0.0768996409871 0)
(-0.501632447956 0.0168255016901 0)
(-1.36344075642 0.0457318398059 0)
(-0.304264877381 0.0102054985268 0)
(0 0 0)
(-0.026811473134 0.000968285419365 0)
(0 0 0)
(-0.0678970039292 0.0022773669427 0)
(0 0 0)
(-0.0411820122192 0.00138130621139 0)
(0 0 0)
(-0.075735433177 0.00264037934589 0)
(-0.0757461238586 0.00264075205723 0)
(-0.0143268336103 0.000564574060439 0)
(-0.501671080984 0.0168267974995 0)
(-0.111942058896 0.00375470388491 0)
(-0.111947002913 0.00375486971463 0)
(-0.0249787238306 0.000837823712839 0)
(0 0 0)
(0 0 0)
(0 0 0)
(-0.013681373618 0.000503782412404 0)
(0 0 0)
(0 0 0)
(0 0 0)
(-7.30403947579 0.210396753449 0)
(-4.33964281755 0.122356428962 0)
(-4.43163445072 0.0870295479639 0)
(-2.10478575484 0.0413343101381 0)
(-0.583746145518 0.0163536192911 0)
(-1.58684654736 0.0444554272574 0)
(-0.354080979808 0.00991956107371 0)
(-2.68903570714 0.0528079571214 0)
(-0.284872828728 0.0055944040031 0)
(-1.27646402569 0.0250675204336 0)
(-0.134937649808 0.00264993938392 0)
(0 0 0)
(-0.0479211738883 0.0013425093078 0)
(0 0 0)
(-0.103276503883 0.00202743544527 0)
(0 0 0)
(-0.0489073783132 0.000960107561738 0)
(0 0 0)
(0 0 0)
(0 0 0)
(0 0 0)
(0 0 0)
(0 0 0)
(0 0 0)
(0 0 0)
(0 0 0)
(0 0 0)
(0 0 0)
(0 0 0)
(0 0 0)
(0 0 0)
(0 0 0)
(0 0 0)
(0 0 0)
(0 0 0)
(0 0 0)
(0 0 0)
(0 0 0)
(0 0 0)
(0 0 0)
(0 0 0)
(0 0 0)
(0 0 0)
(0 0 0)
(0 0 0)
(0 0 0)
(0 0 0)
(0 0 0)
(0 0 0)
(0 0 0)
(0 0 0)
(0 0 0)
(0 0 0)
(0 0 0)
(0 0 0)
(0 0 0)
(0 0 0)
(0 0 0)
(0 0 0)
(0 0 0)
(-0.354093312084 0.0099199065618 0)
(-0.583800667484 0.0163551467213 0)
(-1.29622128337 0.0254555184114 0)
(-2.72805588562 0.0535742451654 0)
(-0.137029264101 0.0026910150296 0)
(-0.288980412754 0.00567506976762 0)
(-1.58694768352 0.0444582605821 0)
(-0.583802953719 0.01635521077 0)
(-0.354093639078 0.00991991572252 0)
(-2.7118668918 0.0532563216474 0)
(-1.27979289983 0.0251328936984 0)
(-0.288199877289 0.00565974141654 0)
(-0.135959420833 0.00267000517938 0)
(-0.130264370922 0.00364934988542 0)
(-0.13026387709 0.00364933605072 0)
(-0.0290657955528 0.000814276819665 0)
(-0.775940340569 0.015238110868 0)
(-0.0806489512932 0.00158323080593 0)
(-0.0810906248356 0.00159190136081 0)
(-0.00601029910127 4.46303858087e-05 0)
(0 0 0)
(0 0 0)
(0 0 0)
(-0.0296938837205 0.000582924770876 0)
(0 0 0)
(0 0 0)
(0 0 0)
(0 0 0)
(0 0 0)
(0 0 0)
(0 0 0)
(0 0 0)
(0 0 0)
(0 0 0)
(0 0 0)
(0 0 0)
(0 0 0)
(0 0 0)
(0 0 0)
(0 0 0)
(0 0 0)
(0 0 0)
(0 0 0)
(0 0 0)
(0 0 0)
(0 0 0)
(0 0 0)
(0 0 0)
(0 0 0)
(0 0 0)
(0 0 0)
(0 0 0)
(0 0 0)
(0 0 0)
(0 0 0)
(0 0 0)
(0 0 0)
(0 0 0)
(0 0 0)
(0 0 0)
(0 0 0)
(0 0 0)
(0 0 0)
(0 0 0)
(0 0 0)
(0 0 0)
(0 0 0)
(0 0 0)
(0 0 0)
(-0.0790091798641 0.00221343825209 0)
(0 0 0)
(0 0 0)
(-0.0496821985472 0.000975318165766 0)
(-0.104791200045 0.00205717065681 0)
(0 0 0)
(0 0 0)
(-0.0479215634209 0.00134252022054 0)
(0 0 0)
(0 0 0)
(-0.104579641482 0.00205301752115 0)
(-0.0493353560733 0.000968509252808 0)
(0 0 0)
(0 0 0)
(0 0 0)
(0 0 0)
(0 0 0)
(-0.0299009233343 0.000586989194397 0)
(0 0 0)
(0 0 0)
(0 0 0)
(0 0 0)
(0 0 0)
(0 0 0)
(0 0 0)
(0 0 0)
(0 0 0)
(0 0 0)
(0 0 0)
(0 0 0)
(0 0 0)
(0 0 0)
(0 0 0)
(0 0 0)
(0 0 0)
(0 0 0)
(0 0 0)
(0 0 0)
(0 0 0)
(0 0 0)
(0 0 0)
(0 0 0)
(0 0 0)
(0 0 0)
(0 0 0)
(0 0 0)
(0 0 0)
(0 0 0)
(0 0 0)
(0 0 0)
(0 0 0)
(0 0 0)
(0 0 0)
(0 0 0)
(0 0 0)
(0 0 0)
(0 0 0)
(0 0 0)
(0 0 0)
(0 0 0)
(0 0 0)
(0 0 0)
(0 0 0)
(0 0 0)
(0 0 0)
(0 0 0)
(0 0 0)
(0 0 0)
(0 0 0)
(0 0 0)
(0 0 0)
(0 0 0)
(0 0 0)
(0 0 0)
(0 0 0)
(0 0 0)
(0 0 0)
(0 0 0)
(0 0 0)
(0 0 0)
(0 0 0)
(0 0 0)
(0 0 0)
(0 0 0)
(0 0 0)
(0 0 0)
(0 0 0)
(0 0 0)
(0 0 0)
(0 0 0)
(0 0 0)
(0 0 0)
(0 0 0)
(0 0 0)
(0 0 0)
(0 0 0)
(0 0 0)
(0 0 0)
(0 0 0)
(0 0 0)
(0 0 0)
(0 0 0)
(0 0 0)
(0 0 0)
(0 0 0)
(0 0 0)
(0 0 0)
(0 0 0)
(0 0 0)
(0 0 0)
(0 0 0)
(0 0 0)
(0 0 0)
(0 0 0)
(0 0 0)
(0 0 0)
(0 0 0)
(0 0 0)
(0 0 0)
(0 0 0)
(0 0 0)
(0 0 0)
(0 0 0)
(0 0 0)
(0 0 0)
(0 0 0)
(0 0 0)
(0 0 0)
(0 0 0)
(0 0 0)
(0 0 0)
(0 0 0)
(0 0 0)
(0 0 0)
(0 0 0)
(0 0 0)
(0 0 0)
(0 0 0)
(0 0 0)
(0 0 0)
(0 0 0)
(0 0 0)
(0 0 0)
(0 0 0)
(0 0 0)
(0 0 0)
(0 0 0)
(0 0 0)
(0 0 0)
(0 0 0)
(0 0 0)
(0 0 0)
(0 0 0)
(0 0 0)
(0 0 0)
(0 0 0)
(0 0 0)
(0 0 0)
(0 0 0)
(0 0 0)
(0 0 0)
(0 0 0)
(0 0 0)
(0 0 0)
(0 0 0)
(0 0 0)
(0 0 0)
(0 0 0)
(0 0 0)
(0 0 0)
(0 0 0)
(0 0 0)
(0 0 0)
(0 0 0)
(0 0 0)
(0 0 0)
(0 0 0)
(0 0 0)
(0 0 0)
(0 0 0)
(0 0 0)
(0 0 0)
(0 0 0)
(0 0 0)
(0 0 0)
(0 0 0)
(0 0 0)
(0 0 0)
(0 0 0)
(0 0 0)
(0 0 0)
(-0.00164906820639 1.84329755224e-05 0)
(-0.00250666056367 2.80189822556e-05 0)
(-0.00096398574387 1.07633410903e-05 0)
(-0.0015001114237 1.67679645068e-05 0)
(-0.0931414287643 0.00143522305669 0)
(-0.0547525443833 0.000843685942484 0)
(-0.00246664042127 2.75716446001e-05 0)
(-0.00149547172594 1.67161028342e-05 0)
(-0.00149545514857 1.67159175355e-05 0)
(-0.000905765062046 1.01132805879e-05 0)
(-0.00815141124499 0.000125384706704 0)
(-0.0211037566779 0.000325189323041 0)
(-0.00483213789693 7.43277666593e-05 0)
(-0.000549904791466 6.13993814261e-06 0)
(-0.00012273426376 1.3703841086e-06 0)
(-0.000333571429899 3.72447735956e-06 0)
(-7.46610267985e-05 8.33624462491e-07 0)
(0 0 0)
(-0.000635340054112 7.79336473438e-06 0)
(0 0 0)
(-1.44786248924e-05 8.94361058907e-08 0)
(0 0 0)
(-8.81972968524e-06 5.44804692377e-08 0)
(0 0 0)
(0 0 0)
(0 0 0)
(0 0 0)
(0 0 0)
(0 0 0)
(0 0 0)
(0 0 0)
(0 0 0)
(0 0 0)
(0 0 0)
(0 0 0)
(0 0 0)
(0 0 0)
(0 0 0)
(0 0 0)
(0 0 0)
(0 0 0)
(0 0 0)
(0 0 0)
(0 0 0)
(0 0 0)
(0 0 0)
(0 0 0)
(0 0 0)
(0 0 0)
(0 0 0)
(0 0 0)
(0 0 0)
(0 0 0)
(0 0 0)
(0 0 0)
(0 0 0)
(0 0 0)
(0 0 0)
(0 0 0)
(0 0 0)
(0 0 0)
(0 0 0)
(0 0 0)
(0 0 0)
(0 0 0)
(0 0 0)
(-0.0279402340444 0.000430533100488 0)
(-0.00363312252882 5.58845565516e-05 0)
(-0.00616788500761 9.4874179381e-05 0)
(-0.000344638960882 3.84805139761e-06 0)
(-0.000550784826356 6.14976413408e-06 0)
(-7.70247478518e-05 8.60016487581e-07 0)
(-0.000123881946035 1.38319850535e-06 0)
(-0.0190393216464 0.000293378293346 0)
(-0.00640569707123 9.85321957601e-05 0)
(-0.00408254907792 6.27976191307e-05 0)
(-0.000549610960659 6.13665738747e-06 0)
(-0.000333267757992 3.72108672403e-06 0)
(-0.000122861371385 1.37180332328e-06 0)
(-7.43497087665e-05 8.30148454483e-07 0)
(-0.00174323879528 2.68144347637e-05 0)
(-0.00159440226573 2.45250367635e-05 0)
(-0.00035533180438 4.35865854094e-06 0)
(-0.000122660365872 1.36955900493e-06 0)
(-2.67184280032e-05 2.57737290102e-07 0)
(-2.66531455637e-05 2.57107547999e-07 0)
(-3.38685383297e-06 1.01007799942e-08 0)
(0 0 0)
(0 0 0)
(0 0 0)
(0 0 0)
(0 0 0)
(0 0 0)
(0 0 0)
(0 0 0)
(0 0 0)
(0 0 0)
(0 0 0)
(0 0 0)
(0 0 0)
(0 0 0)
(0 0 0)
(0 0 0)
(0 0 0)
(0 0 0)
(0 0 0)
(0 0 0)
(0 0 0)
(0 0 0)
(0 0 0)
(0 0 0)
(0 0 0)
(0 0 0)
(0 0 0)
(0 0 0)
(0 0 0)
(0 0 0)
(0 0 0)
(0 0 0)
(0 0 0)
(0 0 0)
(0 0 0)
(0 0 0)
(0 0 0)
(0 0 0)
(0 0 0)
(0 0 0)
(0 0 0)
(0 0 0)
(0 0 0)
(0 0 0)
(0 0 0)
(0 0 0)
(0 0 0)
(0 0 0)
(0 0 0)
(-0.000823765079614 1.26711240295e-05 0)
(0 0 0)
(0 0 0)
(-9.28388505062e-06 5.73476095025e-08 0)
(-1.48612789871e-05 9.17998035747e-08 0)
(0 0 0)
(0 0 0)
(-0.000508347152114 6.23561310588e-06 0)
(0 0 0)
(0 0 0)
(-1.45549857538e-05 8.99077955805e-08 0)
(-8.78180271604e-06 5.42461900531e-08 0)
(0 0 0)
(0 0 0)
(0 0 0)
(0 0 0)
(0 0 0)
(0 0 0)
(0 0 0)
(0 0 0)
(0 0 0)
(0 0 0)
(0 0 0)
(0 0 0)
(0 0 0)
(0 0 0)
(0 0 0)
(0 0 0)
(0 0 0)
(0 0 0)
(0 0 0)
(0 0 0)
(0 0 0)
(0 0 0)
(0 0 0)
(0 0 0)
(0 0 0)
(0 0 0)
(0 0 0)
(0 0 0)
(0 0 0)
(0 0 0)
(0 0 0)
(0 0 0)
(0 0 0)
(0 0 0)
(0 0 0)
(0 0 0)
(0 0 0)
(0 0 0)
(0 0 0)
(0 0 0)
(0 0 0)
(0 0 0)
(0 0 0)
(0 0 0)
(0 0 0)
(0 0 0)
(0 0 0)
(0 0 0)
(0 0 0)
(0 0 0)
(0 0 0)
(0 0 0)
(0 0 0)
(0 0 0)
(0 0 0)
(0 0 0)
(0 0 0)
(0 0 0)
(0 0 0)
(0 0 0)
(0 0 0)
(0 0 0)
(0 0 0)
(0 0 0)
(0 0 0)
(0 0 0)
(0 0 0)
(0 0 0)
(0 0 0)
(0 0 0)
(0 0 0)
(0 0 0)
(0 0 0)
(0 0 0)
(0 0 0)
(0 0 0)
(0 0 0)
(0 0 0)
(0 0 0)
(0 0 0)
(0 0 0)
(0 0 0)
(0 0 0)
(0 0 0)
(0 0 0)
(0 0 0)
(0 0 0)
(0 0 0)
(0 0 0)
(0 0 0)
(0 0 0)
(0 0 0)
(0 0 0)
(0 0 0)
(0 0 0)
(0 0 0)
(0 0 0)
(0 0 0)
(0 0 0)
(0 0 0)
(0 0 0)
(0 0 0)
(0 0 0)
(0 0 0)
(0 0 0)
(0 0 0)
(0 0 0)
(0 0 0)
(0 0 0)
(0 0 0)
(0 0 0)
(0 0 0)
(0 0 0)
(0 0 0)
(0 0 0)
(0 0 0)
(0 0 0)
(0 0 0)
(0 0 0)
(0 0 0)
(0 0 0)
(0 0 0)
(0 0 0)
(0 0 0)
(0 0 0)
(0 0 0)
(0 0 0)
(0 0 0)
(0 0 0)
(0 0 0)
(0 0 0)
(0 0 0)
(0 0 0)
(0 0 0)
(0 0 0)
(0 0 0)
(0 0 0)
(0 0 0)
(0 0 0)
(0 0 0)
(0 0 0)
(0 0 0)
(0 0 0)
(0 0 0)
(0 0 0)
(0 0 0)
(0 0 0)
(0 0 0)
(0 0 0)
(0 0 0)
(0 0 0)
(0 0 0)
(0 0 0)
(0 0 0)
(0 0 0)
(0 0 0)
(0 0 0)
(0 0 0)
(0 0 0)
(0 0 0)
(0 0 0)
(0 0 0)
(0 0 0)
(0 0 0)
(0 0 0)
(0 0 0)
(0 0 0)
(0 0 0)
(0 0 0)
(0 0 0)
(0 0 0)
(0 0 0)
(0 0 0)
(0 0 0)
(0 0 0)
(0 0 0)
(0 0 0)
(0 0 0)
(0 0 0)
(0 0 0)
(0 0 0)
(0 0 0)
(0 0 0)
(0 0 0)
(-7.23316513875 0.166174386018 0)
(-5.61996928744 0.128653795751 0)
(-6.44115383562 0.126492993254 0)
(-3.91320281384 0.0768484575538 0)
(-4.95970957216 0.113538958959 0)
(-5.68763462461 0.111695194148 0)
(-8.20478802034 0.188800336034 0)
(-5.62022085526 0.128659554707 0)
(-2.65479623277 0.0607742844884 0)
(-3.05214143534 0.0599387184105 0)
(-3.0618136614 0.0601286640097 0)
(-3.86270066972 0.0884259464049 0)
(-3.86267075166 0.0884252615129 0)
(-4.43716731124 0.0871382036654 0)
(-1.610163241 0.0368602748765 0)
(-3.40866408634 0.07803202308 0)
(-1.44235163503 0.0283252628793 0)
(-2.37905951136 0.046720566905 0)
(-3.0081930089 0.0688643352218 0)
(-1.27417635198 0.025022594524 0)
(-1.82453145793 0.0417676477439 0)
(-0.760588457851 0.0174115884095 0)
(-0.359279158137 0.00822471174918 0)
(-0.682716657783 0.0134073608225 0)
(-0.251512620776 0.00493926787889 0)
(-0.317062666692 0.00725828086853 0)
(-0.602330190128 0.0118287112249 0)
(-0.86185576354 0.0197298258581 0)
(-1.25402315044 0.0287074234773 0)
(-1.61020457944 0.0368612212069 0)
(-1.85537973167 0.036436412151 0)
(-0.683810274429 0.0134288375403 0)
(-2.34283595616 0.053632808858 0)
(-0.861875840187 0.0197302854579 0)
(-0.993695383208 0.0195144389674 0)
(-0.592357923676 0.0135604113521 0)
(-0.169712836248 0.00388511030118 0)
(-0.196103920587 0.00385113793848 0)
(-0.323442273737 0.00635184043015 0)
(-0.246931565104 0.00565282148646 0)
(-0.407121019815 0.00931992006542 0)
(-0.469683575057 0.00922376375531 0)
(-0.0367438301426 0.000844310359713 0)
(-0.132171992277 0.00302571555619 0)
(-0.0335966222917 0.000659539975839 0)
(-0.091208014017 0.00179051723828 0)
(-0.116642340308 0.00267020673215 0)
(-0.0296452509995 0.00058197005515 0)
(-0.0416354971814 0.000956712500185 0)
(-0.00919013658439 0.000150296659526 0)
(0 0 0)
(-0.00874726297101 0.000127947220056 0)
(0 0 0)
(0 0 0)
(-0.00598080568059 4.44113779488e-05 0)
(-0.0104135599688 0.000170304680754 0)
(-0.0286158808559 0.000657543989431 0)
(-0.0624337434092 0.00142924946058 0)
(-0.071111968275 0.00139600896277 0)
(-0.0144272425272 0.000211028933342 0)
(-0.0908411201377 0.00207955850259 0)
(-0.0196672418426 0.000451919573171 0)
(-0.0231128718546 0.000453732009494 0)
(-0.00522089031351 4.06698480523e-05 0)
(0 0 0)
(0 0 0)
(0 0 0)
(0 0 0)
(0 0 0)
(-0.00466217132498 3.46196589279e-05 0)
(0 0 0)
(0 0 0)
(0 0 0)
(0 0 0)
(0 0 0)
(0 0 0)
(0 0 0)
(0 0 0)
(0 0 0)
(0 0 0)
(0 0 0)
(0 0 0)
(0 0 0)
(0 0 0)
(0 0 0)
(0 0 0)
(0 0 0)
(0 0 0)
(0 0 0)
(0 0 0)
(0 0 0)
(0 0 0)
(0 0 0)
(0 0 0)
(0 0 0)
(0 0 0)
(0 0 0)
(0 0 0)
(0 0 0)
(0 0 0)
(0 0 0)
(0 0 0)
(0 0 0)
(0 0 0)
(0 0 0)
(0 0 0)
(0 0 0)
(0 0 0)
(0 0 0)
(0 0 0)
(0 0 0)
(0 0 0)
(0 0 0)
(0 0 0)
(0 0 0)
(0 0 0)
(0 0 0)
(0 0 0)
(0 0 0)
(0 0 0)
(0 0 0)
(0 0 0)
(0 0 0)
(0 0 0)
(0 0 0)
(0 0 0)
(0 0 0)
(0 0 0)
(0 0 0)
(0 0 0)
(0 0 0)
(0 0 0)
(0 0 0)
(0 0 0)
(0 0 0)
(0 0 0)
(0 0 0)
(0 0 0)
(0 0 0)
(0 0 0)
(0 0 0)
(0 0 0)
(0 0 0)
(0 0 0)
(0 0 0)
(0 0 0)
(0 0 0)
(0 0 0)
(0 0 0)
(0 0 0)
(0 0 0)
(0 0 0)
(0 0 0)
(0 0 0)
(0 0 0)
(0 0 0)
(0 0 0)
(0 0 0)
(0 0 0)
(0 0 0)
(0 0 0)
(0 0 0)
(0 0 0)
(0 0 0)
(0 0 0)
(0 0 0)
(0 0 0)
(0 0 0)
(0 0 0)
(0 0 0)
(0 0 0)
(0 0 0)
(0 0 0)
(0 0 0)
(0 0 0)
(0 0 0)
(0 0 0)
(0 0 0)
(0 0 0)
(0 0 0)
(0 0 0)
(0 0 0)
(0 0 0)
(0 0 0)
(0 0 0)
(0 0 0)
(0 0 0)
(0 0 0)
(0 0 0)
(0 0 0)
(0 0 0)
(0 0 0)
(0 0 0)
(0 0 0)
(0 0 0)
(0 0 0)
(0 0 0)
(0 0 0)
(0 0 0)
(0 0 0)
(0 0 0)
(0 0 0)
(0 0 0)
(0 0 0)
(0 0 0)
(0 0 0)
(0 0 0)
(0 0 0)
(0 0 0)
(0 0 0)
(0 0 0)
(0 0 0)
(0 0 0)
(0 0 0)
(0 0 0)
(0 0 0)
(0 0 0)
(0 0 0)
(0 0 0)
(0 0 0)
(0 0 0)
(0 0 0)
(0 0 0)
(0 0 0)
(0 0 0)
(0 0 0)
(0 0 0)
(0 0 0)
(0 0 0)
(0 0 0)
(0 0 0)
(0 0 0)
(0 0 0)
(0 0 0)
(0 0 0)
(0 0 0)
(0 0 0)
(0 0 0)
(-1.25404787669 0.0287079895169 0)
(-1.61017160436 0.0368604663327 0)
(-1.86883699335 0.0367006892284 0)
(-0.693599616282 0.0136210830889 0)
(-2.34281623505 0.0536323573972 0)
(-1.01179798113 0.019869942322 0)
(-0.861867018213 0.019730083503 0)
(-1.61025500861 0.0368623756445 0)
(-3.40878531029 0.0780347981702 0)
(-2.40010490174 0.0471338615555 0)
(-1.45453777592 0.0285645773681 0)
(-3.0082698679 0.0688660946979 0)
(-1.82457994936 0.0417687578222 0)
(-1.2901713781 0.0253367088556 0)
(-0.592376270681 0.0135608313565 0)
(-0.169707485377 0.00388498780764 0)
(-0.328002360456 0.00644139255596 0)
(-0.1983909591 0.00389605137395 0)
(-0.246932249355 0.00565283715052 0)
(-0.478321397892 0.00939339548488 0)
(-0.407116531185 0.00931981731055 0)
(-0.760624430668 0.0174124119085 0)
(-0.359279855693 0.00822472771781 0)
(-0.689227933279 0.0135352308825 0)
(-0.254897446158 0.00500573992801 0)
(-0.861859337063 0.0197299076641 0)
(-0.317072753569 0.00725851177994 0)
(-0.610586112547 0.0119908430984 0)
(-1.61023292994 0.0368618702138 0)
(-3.40874488061 0.0780338726435 0)
(-2.38806643912 0.0468974472096 0)
(-1.45674286154 0.0286078813921 0)
(-3.00826631609 0.0688660133888 0)
(-1.82458203659 0.0417688056038 0)
(-1.28573656841 0.0252496169514 0)
(-1.25404462219 0.028707915014 0)
(-1.61023628793 0.0368619470858 0)
(-1.86198795077 0.0365661860138 0)
(-0.686553917484 0.0134827178902 0)
(-2.34285985491 0.0536333559545 0)
(-0.861889977834 0.0197306091006 0)
(-0.999146095216 0.0196214814158 0)
(-0.76060276053 0.0174119158301 0)
(-0.359273023021 0.00822457130252 0)
(-0.690085892015 0.0135520796912 0)
(-0.254133153879 0.00499073056468 0)
(-0.861861880532 0.0197299658899 0)
(-0.31706229732 0.00725827241277 0)
(-0.608855689239 0.0119568606118 0)
(-0.592359126085 0.013560438878 0)
(-0.169711928608 0.00388508952324 0)
(-0.32513320267 0.00638504731631 0)
(-0.19794432439 0.00388728024959 0)
(-0.407124080132 0.00931999012301 0)
(-0.246931123895 0.00565281138619 0)
(-0.473183078986 0.00929248789048 0)
(-0.279813345714 0.00640555974358 0)
(-0.9766563822 0.0223578714202 0)
(-0.41552091795 0.00816010392122 0)
(-0.41652799601 0.00817988117254 0)
(-0.52276440582 0.0119672584764 0)
(-0.522761767745 0.0119671980849 0)
(-0.222924285992 0.0043778429958 0)
(-0.13217384209 0.0030257579026 0)
(-0.102936368952 0.00235644607811 0)
(-0.19645055091 0.00385794515163 0)
(-0.0432360411229 0.000848772750725 0)
(-0.246934892582 0.00565289765994 0)
(-0.0534618323737 0.00122846145182 0)
(-0.103646531117 0.00203469950149 0)
(-0.132173943729 0.00302576022934 0)
(-0.102934933516 0.00235641321772 0)
(-0.197214728312 0.00387295225897 0)
(-0.0434027657951 0.000852045746008 0)
(-0.246933586566 0.0056528677623 0)
(-0.0534607763154 0.00122843718541 0)
(-0.103870786056 0.00203910188146 0)
(-0.0624344727242 0.00142926615624 0)
(-0.00918996505506 0.000150293854314 0)
(-0.0204632282333 0.000401716486182 0)
(-0.0205033615492 0.000402504348901 0)
(-0.0252535155854 0.000580282587448 0)
(-0.0252531365945 0.000580273878887 0)
(-0.0490653097363 0.000963207935521 0)
(0 0 0)
(-0.0367430034642 0.000844291364058 0)
(-0.00875732143697 0.000128094346393 0)
(-0.0144438188282 0.0002112713968 0)
(-0.0104135273698 0.000170304147626 0)
(-0.0196675120017 0.000451925780964 0)
(0 0 0)
(0 0 0)
(0 0 0)
(0 0 0)
(0 0 0)
(0 0 0)
(0 0 0)
(0 0 0)
(0 0 0)
(0 0 0)
(-0.00529695464765 3.93333385831e-05 0)
(0 0 0)
(-0.00811018713299 0.0001326350292 0)
(0 0 0)
(0 0 0)
(0 0 0)
(0 0 0)
(0 0 0)
(0 0 0)
(0 0 0)
(0 0 0)
(0 0 0)
(0 0 0)
(0 0 0)
(0 0 0)
(0 0 0)
(0 0 0)
(0 0 0)
(0 0 0)
(0 0 0)
(0 0 0)
(0 0 0)
(0 0 0)
(0 0 0)
(0 0 0)
(0 0 0)
(0 0 0)
(0 0 0)
(0 0 0)
(0 0 0)
(0 0 0)
(0 0 0)
(0 0 0)
(0 0 0)
(0 0 0)
(0 0 0)
(0 0 0)
(0 0 0)
(0 0 0)
(0 0 0)
(0 0 0)
(0 0 0)
(0 0 0)
(0 0 0)
(0 0 0)
(0 0 0)
(0 0 0)
(0 0 0)
(0 0 0)
(0 0 0)
(0 0 0)
(0 0 0)
(0 0 0)
(0 0 0)
(0 0 0)
(0 0 0)
(0 0 0)
(0 0 0)
(0 0 0)
(0 0 0)
(0 0 0)
(0 0 0)
(0 0 0)
(0 0 0)
(0 0 0)
(0 0 0)
(0 0 0)
(0 0 0)
(0 0 0)
(0 0 0)
(0 0 0)
(0 0 0)
(0 0 0)
(0 0 0)
(0 0 0)
(0 0 0)
(0 0 0)
(0 0 0)
(0 0 0)
(0 0 0)
(0 0 0)
(0 0 0)
(0 0 0)
(0 0 0)
(0 0 0)
(0 0 0)
(0 0 0)
(0 0 0)
(0 0 0)
(0 0 0)
(0 0 0)
(0 0 0)
(0 0 0)
(0 0 0)
(0 0 0)
(0 0 0)
(0 0 0)
(0 0 0)
(0 0 0)
(0 0 0)
(0 0 0)
(0 0 0)
(0 0 0)
(0 0 0)
(0 0 0)
(0 0 0)
(0 0 0)
(0 0 0)
(0 0 0)
(0 0 0)
(0 0 0)
(0 0 0)
(0 0 0)
(0 0 0)
(0 0 0)
(0 0 0)
(0 0 0)
(0 0 0)
(0 0 0)
(0 0 0)
(0 0 0)
(0 0 0)
(0 0 0)
(0 0 0)
(0 0 0)
(0 0 0)
(0 0 0)
(0 0 0)
(0 0 0)
(0 0 0)
(0 0 0)
(0 0 0)
(0 0 0)
(0 0 0)
(0 0 0)
(0 0 0)
(0 0 0)
(0 0 0)
(0 0 0)
(0 0 0)
(0 0 0)
(0 0 0)
(0 0 0)
(0 0 0)
(0 0 0)
(0 0 0)
(0 0 0)
(0 0 0)
(0 0 0)
(0 0 0)
(0 0 0)
(0 0 0)
(0 0 0)
(0 0 0)
(0 0 0)
(0 0 0)
(0 0 0)
(0 0 0)
(0 0 0)
(0 0 0)
(0 0 0)
(0 0 0)
(0 0 0)
(0 0 0)
(0 0 0)
(0 0 0)
(0 0 0)
(0 0 0)
(0 0 0)
(0 0 0)
(0 0 0)
(0 0 0)
(0 0 0)
(0 0 0)
(0 0 0)
(0 0 0)
(0 0 0)
(0 0 0)
(0 0 0)
(0 0 0)
(-0.028615732553 0.000657540581684 0)
(-0.0624318155843 0.00142920532831 0)
(-0.0719612919915 0.00141268215505 0)
(-0.0146129636413 0.000213745497406 0)
(-0.090839498294 0.00207952137492 0)
(-0.0234723194232 0.000460788374821 0)
(-0.019667482575 0.00045192510479 0)
(-0.0367435052027 0.00084430289315 0)
(-0.132170856728 0.00302568956091 0)
(-0.0924557350978 0.00181501142476 0)
(-0.0340326398344 0.000668099497004 0)
(-0.116642362736 0.0026702072456 0)
(-0.0416357665577 0.000956718689992 0)
(-0.0300711329134 0.000590330602373 0)
(-0.00522104023874 4.06710159443e-05 0)
(0 0 0)
(0 0 0)
(0 0 0)
(0 0 0)
(-0.00473118997887 3.51321673903e-05 0)
(0 0 0)
(-0.00919031800954 0.000150299626576 0)
(0 0 0)
(-0.00885826430231 0.000129570849277 0)
(0 0 0)
(-0.0104139632727 0.000170311276438 0)
(0 0 0)
(-0.00606608746057 4.50446507159e-05 0)
(-0.0367432597275 0.000844297252549 0)
(-0.132169524782 0.00302565906966 0)
(-0.0922364453218 0.00181070651659 0)
(-0.034040393882 0.000668251717794 0)
(-0.116640774074 0.00267017087754 0)
(-0.0416355767382 0.000956714328264 0)
(-0.0300278372916 0.000589480659986 0)
(-0.0286158172823 0.000657542528619 0)
(-0.0624343092789 0.00142926241461 0)
(-0.0718315961084 0.00141013607709 0)
(-0.01455733993 0.000212931882992 0)
(-0.0908414585853 0.00207956625042 0)
(-0.0196674271016 0.000451923830106 0)
(-0.0233596920607 0.000458577371368 0)
(-0.00919026610776 0.000150298777768 0)
(0 0 0)
(-0.00885968351163 0.000129591608215 0)
(0 0 0)
(-0.0104139313603 0.000170310754537 0)
(0 0 0)
(-0.0060588091964 4.49906048635e-05 0)
(-0.00522102694744 4.06709124073e-05 0)
(0 0 0)
(0 0 0)
(0 0 0)
(0 0 0)
(0 0 0)