/*--------------------------------*- C++ -*----------------------------------*\
| =========                 |                                                 |
| \\      /  F ield         | OpenFOAM: The Open Source CFD Toolbox           |
|  \\    /   O peration     | Version:  v1906                                 |
|   \\  /    A nd           | Web:      www.OpenFOAM.com                      |
|    \\/     M anipulation  |                                                 |
\*---------------------------------------------------------------------------*/
FoamFile
{
    version     2.0;
    format      ascii;
    class       volScalarField;
    location    "3.05";
    object      p;
}
// * * * * * * * * * * * * * * * * * * * * * * * * * * * * * * * * * * * * * //

dimensions      [1 -1 -2 0 0 0 0];


internalField   nonuniform List<scalar> 
28582
(
17113.0463374
17114.2079369
12215.7411971
12217.1242845
7319.36020447
7321.31586904
3646.349579
3649.65731178
9.5858776087
10.8533928292
-26.9721087926
3648.23844375
619.735849647
622.142321674
3650.67736903
3650.70657937
622.892407503
1816.27783615
1816.34218089
17110.6918721
17114.7614366
17114.4555847
12212.8797532
12217.6636051
12217.1392222
7315.49147804
7321.97275516
3641.31804137
3651.38709887
11.406001059
-27.0762946905
-26.9756976345
3642.74327102
3643.6283225
614.203568778
618.240568846
1807.21968292
3651.73918694
3651.29765803
3651.39222599
1816.66870054
626.90895094
1816.669794
1816.46363013
9.85411765311
10.8930297406
-23.2492058168
-23.2524880094
10.3063701727
-23.2609281668
1809.96524481
1811.60519779
620.63589579
619.648207255
1810.4309252
620.521946664
1811.11058679
1812.67418229
1813.25789088
621.409758714
622.079082497
1813.60867166
621.299820998
1812.26304619
1815.1217489
1814.07311255
623.595621345
622.842495751
1814.38194001
623.567202152
1814.88673493
1816.06933841
624.719657908
624.864597562
1815.74444487
624.203795695
624.191617091
1815.53499652
1816.12615185
625.02448327
625.086896039
1815.82182546
624.275788856
1815.70485348
624.240533712
9.77018149913
-23.2764659517
8.1116022479
9.72350130007
-23.2640179239
-23.2784723257
11.8526571783
-23.2399395235
-23.2397086951
13.189894109
-23.2259101359
12.2047796883
-23.226409631
1805.46608428
1804.36997529
615.596284025
615.123068526
1805.16418518
1804.64489502
616.023691775
1806.34812298
1807.13992397
617.188442192
618.545875615
1806.13833894
1807.32069355
617.272112812
617.846633337
618.818308198
1808.35792549
1806.76863799
618.792323481
1807.74715508
617.612816691
1816.4953294
625.184549528
625.455546833
1816.91787234
625.772229641
1816.87771597
625.995103243
1817.05748049
1817.40058682
626.333314867
627.189976282
1817.16696722
1817.08865705
626.578668949
1816.61215431
1816.4694839
625.687175846
625.848561122
626.458819405
1816.80723401
626.275577524
626.939454079
627.300040112
1816.10877551
1816.78770405
627.248321049
1816.58441661
626.804239556
7320.93222669
3651.54276107
13.6151584544
-26.9736230013
3645.50048185
619.692238166
3650.95293363
3649.77545597
627.73475606
627.567659378
630.344305719
3647.3825373
3643.59711748
631.464608456
630.887256955
10.1895415001
14.7835843267
16.948534455
-23.1895280394
-23.1835881742
-23.1394205154
19.6521014507
22.3712544389
1810.22157099
1809.47864902
619.753441703
620.638244625
1808.93573721
620.52009883
1810.67683524
1816.7767445
1817.55450252
628.818194517
627.852906151
1817.49378918
1817.0152363
628.79102601
1815.93736826
1815.67108313
627.739965384
628.093524617
1816.29690628
628.486362974
1815.28490334
1815.53066713
1814.63318362
630.657738241
629.185462947
1814.9132301
629.506858495
1815.04530855
1811.4059562
1813.665515
631.80082964
632.35101923
1813.67458324
632.123456681
1811.81394599
1808.02116798
1804.52589201
630.34352938
632.297904354
1804.02105019
631.464790891
1808.66617938
3650.12211414
3644.63572441
3643.0042666
3640.30944072
-3.36272161643
0.703727905534
-3.70421941841
-0.681219028539
-0.00082798108707
-26.9839914122
-27.0638182704
-26.9385191637
-27.0238081176
-26.9431571985
-27.0311666543
3651.05464898
3650.12951248
610.842190229
608.904944229
3653.08113533
610.335918045
3648.32348809
3646.10181061
608.015664502
605.781385033
3650.2527139
3647.13880257
3646.98999463
609.196375524
611.83278681
606.622140512
608.115203792
3644.8720298
3641.45625055
612.839202315
607.265893216
609.224465974
606.02225534
3644.3957801
3642.5276424
605.96664614
607.54753906
606.789520027
3640.68635311
3641.54314354
3639.93202507
608.506501292
605.993049298
608.023469601
606.549669877
607.929437554
606.860381595
-2.03134541382
-3.03268706396
-2.58278547748
-23.3759094728
-23.3415907238
-23.3579291402
-23.3246886084
-23.3226524535
-23.3131936269
-23.3128661512
-23.3129120018
-3.84655896374
-4.12804774253
-1.76182826336
-3.7216793295
-2.37680690696
-23.339798285
-23.3042285051
-23.3568225256
-23.3137734704
2.26907628993
-0.230823235844
1.36777931145
-23.2877974114
-23.2825028066
-23.2842624436
-23.2688608006
-2.57476519249
-2.37802272808
-23.3497988715
-23.3221343151
-23.3256979306
1.0012693222
-0.577247864523
0.947106232548
-23.2896830467
-23.2718881451
-23.3029326269
-23.2778345048
1813.3252189
1815.33138237
609.370819629
610.344304088
1815.14629686
609.384780192
1813.19430207
1813.06272649
1814.1533126
609.794521812
607.562738309
1814.76549787
1812.39823199
608.76341498
1817.74888177
1815.60317705
611.211476153
612.13172242
1816.41273398
1816.66138582
612.585859711
1810.95211493
1813.17112262
606.891417307
607.407277116
1811.68778555
1812.13249343
606.459783907
1809.98442355
1809.85464928
606.582244384
604.954624079
1810.98182792
1808.84176975
605.747584033
1813.87009565
1814.38465053
610.766430103
608.366667088
1815.21199285
1813.09667239
609.144829774
1814.01044202
1814.63180811
611.842168625
611.689359665
1815.25193574
1812.91420754
610.634885442
1812.44425143
1810.57411741
607.512989727
607.613336993
1811.81009802
1810.86337755
608.196820926
1812.45649629
1809.87204875
610.070549985
607.873181036
1811.15915454
1810.51842945
609.465742675
1808.1954416
1813.008867
612.840285116
610.981981535
1809.55467991
1810.57815792
609.203125057
1805.78013633
1802.52055431
610.490306294
608.020698607
1805.74336382
609.334790105
1801.84999369
1807.03926842
1808.69115774
609.236625941
608.431444208
1809.03241553
1805.94572889
608.045014425
1805.07037671
1801.91370743
607.120300882
606.57080782
1803.42291797
608.092897447
1801.60030144
1808.50228417
1809.38596991
606.930366022
605.386633959
1809.55029774
1808.20997435
606.24332083
1808.45660242
1808.74088812
607.241358118
607.367553647
1809.24778631
1807.5728181
607.380473018
1807.48281929
1806.25626843
606.863055201
605.70518361
1806.70301179
1806.43639792
606.84820356
1804.80582832
1807.6725428
607.657100411
606.443489287
1805.20060296
1805.99330417
606.713786987
1803.54938276
1801.7812815
606.157881157
606.202509133
1802.9717254
607.479683336
1801.52986086
1804.32245623
1805.57159619
606.202293235
606.71115961
1805.34602951
1803.62022155
606.726112653
1803.28485587
1801.56019778
606.211251883
605.272909329
1801.945242
607.495782857
1801.50389428
1802.75856203
1804.80464327
606.686506553
605.337061918
1803.13358938
1803.0274319
607.12585821
1801.35118075
605.458777601
1801.62294148
17112.0124006
17113.5399542
17114.3912081
17113.3529619
17111.9272137
17110.7586963
12214.6237567
12216.4175449
12217.2909007
12215.6366093
12213.530754
12212.2297291
18322.003246
18328.9408932
17108.3840768
17112.1158822
17113.459986
17112.6710728
17111.4356144
17109.4140472
18324.4144327
18331.5315534
17111.7931041
17113.4631645
17113.6716343
17112.7875321
17111.5978153
17109.5488672
17106.1595684
17108.8628566
17111.6672199
17113.2136918
17113.4876868
17112.785908
17111.6231842
17109.7101972
17108.7324442
17110.5292431
17112.768791
17113.9867902
17113.9431389
17113.0785748
17111.7322396
17110.0913844
17114.1875656
17113.2203107
17111.8376213
17110.458408
13420.9186962
13428.0940878
12209.3256883
12214.2541148
12215.9699499
12215.0643192
12213.135395
12211.0313092
13425.3368806
13431.4307276
12215.743481
12216.8323783
12216.4799726
12215.2061857
12213.300413
12211.2041652
12208.0620484
12211.474318
12214.1937126
12215.5555025
12215.9896058
12215.1191989
12213.3556852
12211.2443974
12210.928438
12213.0796197
12215.6070457
12216.8727413
12216.727227
12215.5409597
12213.5114163
12211.5544267
12216.9708368
12215.6236968
12213.5298952
12211.9339225
8520.94232863
8530.38442061
7314.93777791
7319.29158326
7320.2088233
7317.9905214
7314.19859754
7309.64930621
8526.01789592
8533.50569487
7317.39611407
7320.02823029
7320.06584789
7317.93283156
7314.24628562
7309.65107211
7310.69895968
7314.5425766
7317.85407701
7319.5259328
7319.873295
7318.1039455
7314.34598167
7309.18700442
7312.36166108
7313.58806492
7316.36157414
7319.42770969
7320.93465059
7320.69446795
7318.64093558
7314.45863283
7309.45055335
7318.00635721
7320.46258975
7321.57482159
7320.99963263
7318.53808354
7314.28057918
7310.47830121
7318.18112173
7313.97559138
7311.04449418
3625.73725125
3633.84419337
3642.49689257
3647.20198532
3649.25956123
3648.56650633
3642.15372703
3636.68350934
3625.2567676
3629.19696036
3637.23456201
3643.77767727
3647.64954155
3649.093172
3648.10121785
3641.73433293
3636.73723519
3638.02878887
3634.05828181
3635.21669112
3640.78831718
3645.37806438
3647.95710128
3649.18152178
3648.27325298
3641.62762046
3635.98360776
3638.01304192
3639.47468568
3643.07482397
3646.98604915
3649.02493501
3650.16954871
3649.40850515
3641.99231333
3635.50774378
3644.57148074
3648.24324531
3650.39968442
3651.4652409
3649.30547474
3641.37104258
3636.20244312
3647.8428119
3639.9368742
3636.40119388
10.1532633768
11.6249876828
12.534801992
13.7595755748
13.182060748
15.4462077214
24.562852838
33.9593611769
2.68182222334
4.61958203013
7.89422834391
10.6450556483
11.7321005162
12.6643074432
12.6078935769
15.5477684513
24.8733548279
34.1444753645
1.95033289112
3.51593182849
6.03613588903
8.94916451313
10.7420028055
11.9224947053
12.5010323046
16.2281305905
25.4302266456
34.1164423255
3.39892940088
5.83614327729
9.063181901
11.0471928115
12.9007704374
13.1503380163
16.7890420308
25.7312296346
33.7420774454
10.4156500585
11.2063551652
11.7225668845
12.5234281259
17.680964493
25.7365624129
31.9126915505
19.4104209055
25.435209095
30.2896230863
-27.0133382112
-27.024263054
-27.0176460862
-27.0109703397
-27.0171966573
-27.0162716577
-26.9932145818
-27.0284800678
-27.1199820885
-27.6818568792
-26.9973098741
-26.9933187722
-27.0072540877
-27.0129114831
-27.0164122094
-27.0177404714
-27.0031127293
-27.0377003107
-27.1420322835
-27.7080255085
-27.0091044184
-26.9746254198
-26.9922046742
-27.0035625029
-26.9976243331
-26.9949191206
-26.9880965655
-27.0317310516
-27.1343945419
-27.649989293
-26.9739058556
-27.007672889
-27.0062470195
-27.0000537768
-26.984869684
-26.9798170048
-27.0172175994
-27.1231173032
-27.6259023121
-27.0184453434
-27.0032903525
-27.0014549369
-26.9888497898
-27.0256378186
-27.1475366102
-27.6337242516
-27.0397629615
-27.2322988303
-27.634549048
18325.1343251
18322.6084592
18326.7257875
15871.5939561
15874.6431167
15872.2819024
15875.4912273
18331.6909179
18330.3592243
18332.9736537
15878.4838467
15880.2413803
15879.3403411
15882.5522414
18328.3202779
18326.6539848
18329.2968512
15874.6789761
15878.377499
15877.0007326
15879.9797125
18333.4295874
18331.9656253
18333.859354
15881.7168754
15883.566322
15882.6849757
15884.9346404
13424.419606
13422.2101158
13425.0572726
10970.1060176
10974.6260849
10971.918713
10975.5058187
13430.8108146
13428.5126002
13432.8238405
10979.1773445
10980.2880333
10979.77117
10983.9021701
13428.1553767
13427.6634413
13430.7255565
10975.3039812
10978.3498232
10978.4235071
10981.2315655
13434.1230355
13433.4292567
13436.4580975
10981.9226036
10985.0711363
10984.325449
10986.8893947
8525.73540155
8522.96057148
8527.02155568
6072.81347518
6077.26580615
6074.7075146
6078.44384777
8532.50126322
8531.35098299
8535.59823513
6081.84606724
6085.63088799
6082.88651299
6088.05591389
8529.2951981
8529.50594583
8532.39017291
6077.40736378
6081.18150472
6080.36678667
6084.17865019
8536.38014811
8535.92088707
8538.12213499
6085.24564718
6088.49986645
6087.69042924
6090.63706189
3621.48544077
3623.79376396
606.723757562
606.693808912
3629.57958993
3627.29806724
3631.02092781
608.743471954
613.930563068
608.454913731
613.698833127
3638.33544638
3635.15444679
3639.16821987
615.366136484
619.820412957
615.282291829
619.645909598
3645.52985351
3642.87071272
3645.7819498
621.016463953
624.098208644
620.800410666
623.701927262
3648.49876912
3647.26029362
3648.328913
625.024353816
625.216798155
624.366789768
624.797641301
3649.45038482
3649.04670019
3649.23002889
625.121431374
627.035528412
624.726973009
626.767984951
3645.82996224
3648.27065532
3645.52080101
628.689096315
633.436343054
628.447546012
631.799074182
3638.72673437
3641.90866135
3638.76824146
632.897312529
631.698989929
631.384137774
632.190843835
3635.58987964
3636.81121691
3635.65869674
633.703132143
620.70526892
634.398260615
621.57157793
3637.74749237
3633.37798753
605.644180553
601.169878504
606.022840416
605.000733626
3625.76107349
3630.16829054
3629.60639341
602.007997173
606.580041676
605.300877451
608.05070097
3633.43272991
3632.08396694
3635.83354408
608.227201869
613.859579354
609.35810731
614.21645578
3640.60115332
3639.21831893
3642.19810243
615.41157082
619.683688377
615.733154437
619.560193768
3646.33131931
3644.71497714
3646.61781275
620.740848906
623.507837529
620.674929367
622.977000474
3648.47253961
3647.79988205
3648.57280307
624.095561304
624.563889806
623.502810812
624.072599558
3649.17300917
3649.09861009
3649.16332109
624.610747839
626.774708252
624.359142035
626.994172243
3645.30555464
3648.05184446
3645.26921351
628.494188948
631.617681429
628.825878549
632.135675442
3638.66876178
3641.63932818
3638.44822007
631.150199746
632.219699881
631.607358261
632.171286793
3635.83119121
3636.45905846
3635.76595929
634.499863623
621.792219422
634.245833714
621.737928559
3635.80490702
3638.38334752
3637.16224744
606.071995105
605.822478159
607.322953809
607.403695657
3633.69150781
3636.54059055
3636.71920992
606.084299282
608.641308065
607.872816307
610.17411642
3637.92200126
3637.78476308
3639.68941976
609.776060983
614.373556316
611.417973557
615.355250231
3643.33191485
3642.05408353
3644.33957448
615.85730993
619.591226675
616.766811502
620.463464857
3646.98484039
3646.33744581
3647.70188716
620.748629344
622.959639529
621.382554749
623.654129192
3648.63224422
3648.3507937
3648.90551558
623.495038413
624.121826029
623.911785285
624.578782269
3649.3075012
3649.48820185
3649.70706848
624.42342796
627.267584397
624.99044094
627.974481872
3645.4864166
3648.79932214
3645.96568437
629.237452493
632.67867455
630.093432357
634.880763015
3638.13284235
3641.86563758
3638.08868194
632.063244355
631.925409734
634.021884402
630.939608708
3635.71917238
3635.6263206
3635.42849886
633.914062629
621.513282653
632.377968133
620.033591383
607.578461089
607.945282838
3638.59648818
3639.61330228
608.416683517
610.616817071
612.483085836
3641.05295354
3640.6496452
3642.08352642
611.819217258
615.828921246
613.664421559
617.525837405
3645.1865904
3643.88305889
3645.92306594
617.262864965
620.831245766
618.668749701
621.83016949
3648.26849708
3647.57410982
3648.88428041
621.692165927
624.036912191
622.59190285
624.674793244
3649.62246635
3649.83914661
3650.51221895
624.34979628
625.024899889
625.069160162
625.881056653
3650.38478636
3650.95757727
3650.9796762
625.474605628
628.557608706
626.238817325
629.899731668
3646.34852169
3649.62508229
3646.31714307
630.82048376
635.522146079
632.261179038
634.740799144
3637.93052923
3641.84460491
3637.83597781
634.38440866
630.529065148
632.922885347
630.140577502
3635.78868399
3635.78974434
3636.13847046
631.981547789
620.131639742
631.96912832
620.793950518
3646.60175134
3647.471332
619.127319235
622.014338535
622.129780774
3649.50584952
3648.98409869
3650.11254083
622.755792721
624.556187787
622.873123223
624.640226485
3651.13267452
3651.02938408
3651.65504486
624.898409115
625.900380764
624.997578665
626.460292323
3651.15035879
3651.76743876
3650.9444476
626.388713172
630.444855039
627.314818048
631.330935184
3645.75682578
3648.59430802
3644.73603249
632.679197037
633.739904338
632.51508007
630.766802986
3637.7542558
3640.58822991
3637.68790014
631.817195736
630.226184489
629.374496867
630.373322314
3637.01169978
3636.54995913
3637.65345062
632.233586806
620.986763779
632.442884633
621.093383638
3650.39778437
631.270372805
3643.87277198
632.196008622
630.358419658
3637.37739536
629.074676453
629.977071566
3637.70012305
631.979949537
620.453381018
-23.3031467602
-23.2941163259
-23.2935769861
-23.265720789
8.5787442797
7.64427716258
-23.2469747445
-23.247029032
-23.2414179892
-23.252689417
10.9303606458
9.20025164195
10.2406713853
-23.2563515446
-23.2675700595
-23.2553385346
-23.2639282277
12.1889742577
11.1454290013
11.766338866
-23.2748899417
-23.281748236
-23.2729422502
-23.2762195906
13.130881825
12.2858908253
12.7902845551
-23.2749235245
-23.2712285108
-23.2724675656
-23.2674698931
13.5095823412
13.184571811
13.056676523
-23.2704052654
-23.2557845782
-23.2638977491
-23.2520497145
13.52764477
12.9009804339
13.4125013939
-23.2320357743
-23.2002162551
-23.2280595481
-23.2003867958
19.6106194359
15.4278402442
19.4982968803
-23.1722109398
-23.1450381944
-23.1760155044
-23.1421333573
30.0041516566
24.6104463003
30.1128090493
-23.0953667841
-23.1264650893
-23.0850989287
-23.1143823013
36.1559542922
34.0498446668
36.5990578567
-23.2529353723
-23.2463332734
-23.2535352972
-23.2467489459
3.22058621937
2.29282201701
3.0281689657
-23.2685575655
-23.2505989141
-23.2620479064
-23.2528969182
6.22531916919
4.00081061133
5.29733954102
-23.2554413183
-23.2481951451
-23.2492105324
-23.2492081508
9.54480219651
6.9197515902
8.5403947653
-23.2474650365
-23.2635935257
-23.252378935
-23.2682224385
11.3247239295
9.77314055263
10.495154303
-23.2722804961
-23.2770875677
-23.2731337526
-23.273466149
12.3042055582
11.1167290914
11.7419913337
-23.269993647
-23.2642354139
-23.2662977339
-23.2627394249
12.6505291793
12.0513458019
12.1751496096
-23.2593695272
-23.2442241933
-23.255552573
-23.2393651684
13.2962265958
12.4347680743
13.3907443645
-23.2222065245
-23.1958822333
-23.2192350302
-23.1985803091
19.7186156016
15.8366136849
20.1080383896
-23.1692163378
-23.1361168929
-23.1704597537
-23.1317452809
30.3016534218
25.1496630628
30.4269432485
-23.0772305968
-23.0949633515
-23.0730694289
-23.0878219492
36.8061585951
34.1784416028
36.6687803441
-23.2445383577
-23.2421522154
-23.2420420717
-23.2446868636
2.71084479777
1.89627288398
2.42223262267
-23.2596036673
-23.255158207
-23.2598273429
-23.2566063526
4.61373805367
3.08193605474
4.09696851714
-23.2541450111
-23.2503689503
-23.2547657933
-23.2501799077
7.61559867829
5.60559610687
7.20415027452
-23.254288874
-23.2654425132
-23.2553646268
-23.2670200043
9.8824214954
8.55848026615
9.78916228388
-23.2709662217
-23.2716013717
-23.2725188922
-23.2819244788
11.3910750885
10.6864105299
11.6996514793
-23.2677261144
-23.2608364382
-23.2723859352
-23.25968947
12.219611513
12.5839360117
12.9445560263
-23.2530705014
-23.2361175813
-23.2490020051
-23.2358387426
13.5482521548
13.1263456691
14.0340254887
-23.2181710378
-23.1944147629
-23.2207504108
-23.1887771942
20.6119002941
16.6309946934
21.0433394446
-23.1613950654
-23.1292077017
-23.151065319
-23.1199299845
30.4489384959
25.6045389433
30.3765868052
-23.0577330006
-23.0779156503
-23.0594096028
-23.0770609943
36.409331338
34.0553856228
36.1488139493
-23.2145365248
-23.219745518
-23.2060055977
-23.2181515157
4.22930043276
5.20418109359
-23.2530676793
-23.2488931959
-23.2483247038
7.55600415136
6.8766025641
8.53584650092
-23.2542877972
-23.2677245892
-23.2565704338
-23.268459226
10.2424058013
9.90778125478
10.6975202428
-23.2722181354
-23.2766501806
-23.2734311839
-23.2727158499
12.1302817791
11.3268964503
11.9141986413
-23.2644402418
-23.2574626311
-23.2659042934
-23.2566239177
13.0223639091
12.2959443596
12.510631465
-23.2503293836
-23.2346604969
-23.2463817561
-23.2321588691
14.0793641488
12.8905103946
14.1405606365
-23.2179401816
-23.1812127083
-23.2121163614
-23.1766842427
21.3527662929
17.1302858486
21.572117364
-23.1425657156
-23.1149637384
-23.1316750217
-23.088876021
30.2237862894
25.7342645563
29.900275854
-23.0532517751
-23.069802587
-23.0407509829
-23.0652065441
35.6973960447
32.9594590499
34.691605374
-23.194516128
-23.2102470304
-23.1947925054
-23.2172981214
10.7753743468
10.283544756
-23.2829736548
-23.2784653698
-23.2920281113
-23.2831025614
11.5507367445
10.6140571478
11.0013813182
-23.2711621165
-23.2626059923
-23.2800681321
-23.2673044589
11.9388195458
11.3374897895
11.7384951881
-23.251509621
-23.2388814753
-23.2551934262
-23.2372401577
14.2726717605
12.6789234217
14.9822396239
-23.2119514762
-23.1677967389
-23.202069061
-23.1579142092
21.8358616769
18.5332542579
22.2852390868
-23.1108767298
-23.0649061246
-23.0981711618
-23.0572126254
29.3870693161
25.6282879003
28.745084682
-23.0385295321
-23.0814326569
-23.0444267284
-23.0954905187
33.2661030633
30.9077510296
31.8723977491
-23.2226446828
-23.2498930021
-23.2361977767
-23.2615468625
16.1747908394
-23.1440350956
22.489648136
-23.0883963978
-23.0609705487
-23.0954192866
-23.0720055046
28.2995945082
-23.0815999278
-23.1395619695
-23.0945244321
-23.1497692433
30.8574397539
-23.2652591881
-23.2726622229
-23.2685294206
-23.269010804
1784.19971923
1786.00899879
604.758978018
607.101954672
1786.69605724
603.631922242
1783.42930412
1785.39925266
1789.15381392
607.078298007
605.420116253
1787.57258254
1787.17337712
604.05532075
1791.26079474
1788.47346612
611.001591956
609.48420836
1789.25052696
610.731766253
1790.90890227
1793.23431111
1795.28225067
612.708363788
613.718019649
1795.36343251
612.057548114
1793.21219325
1791.82996919
1791.04653875
609.30365072
610.493503865
1789.96544803
1792.91350236
610.535848169
1793.7915109
1796.7946233
613.659433841
612.245832609
1795.91780634
1794.85768051
611.934962662
1799.79758557
1797.51931967
616.939903772
615.289981235
1797.63852413
616.69268786
1799.81865588
1801.99606678
1804.35613021
618.464000562
619.725790975
1804.37523348
618.120875103
1802.07117758
1800.31839986
1798.89786055
615.339159919
616.934303034
1798.14150348
1801.10357457
616.743754007
1802.53865575
1805.20112112
619.685721047
618.393961758
1804.77580613
1803.21402727
618.14444126
1808.29717856
1806.33522286
622.209508792
621.188971132
1806.34020943
622.35068389
1808.27527046
1809.65537461
1810.81229915
623.222346009
624.162870521
1810.725928
623.346631064
1809.65330924
1808.47929926
1806.92064805
621.064281766
621.976372563
1806.70134205
1808.55456415
622.180705603
1809.8001636
1810.86763625
623.967706795
622.945534896
1810.83468257
1809.83695358
623.156575299
1812.1049333
1811.61610451
625.411938374
624.949053206
1811.44534876
625.22773747
1812.22320794
1812.58947457
1812.94482782
625.421201892
625.261962823
1813.00764949
625.159513145
1812.66529289
1812.11631046
1811.51793418
624.595703689
624.69995663
1811.49865036
1812.0552463
624.891602039
1812.58710985
1812.93887806
625.03862731
624.80528596
1813.03207193
1812.49494871
624.894230544
1813.889039
1813.32287819
625.469069321
625.306352435
1813.43877559
625.463774706
1813.78168085
1814.34661416
1815.00543056
626.027193417
626.972810735
1814.84589008
625.970451171
1814.36612064
1813.80743795
1813.30715999
625.159394699
625.111683792
1813.4439657
1813.70633871
625.265423145
1814.25745137
1814.69633162
626.847118617
625.695174364
1814.75155304
1814.19557918
625.786846078
1814.77619233
1815.4316988
630.662355778
628.426960228
1815.17236439
630.402442702
1815.13142615
1812.99330535
1810.36270943
632.66551555
632.726526767
1809.84547923
632.310904853
1813.43318797
1814.4165617
1814.87503927
628.372922219
630.114852867
1814.99182224
1814.10043974
630.197430793
1812.47059912
1808.80425418
632.135121621
631.436786643
1809.30808556
1811.97897455
631.853816188
1801.35116551
1806.15153386
631.825439754
632.164805095
1805.76299658
631.507392527
1801.47703588
1798.05418204
1795.36004915
631.010638528
631.836334409
1795.89975121
631.197841375
1797.90863406
1801.14098838
1804.9168589
631.585151839
630.940220714
1805.32379818
1800.92865779
631.236895541
1798.13983667
1796.40032306
632.025665933
631.030659129
1796.29836076
1798.13794017
631.187466893
1792.68171474
1794.13737784
636.539111664
633.937571297
1794.53719228
636.757469986
1792.44139663
1789.14542235
1790.94018272
640.094831938
621.005163371
640.541038649
1790.84179162
1788.76340377
1793.02610084
1795.19519685
634.208018117
637.416958976
1794.94197029
1793.3791659
637.081180256
1789.90806591
1790.51794878
621.449489619
641.382486795
1790.62971405
640.816424647
1790.62174617
1796.45796258
1798.89128413
603.689889198
605.283582714
1794.35101013
603.92974613
1798.67085771
1793.58258148
1788.90688126
601.523545677
603.116276628
1790.39355659
1791.05521881
603.299857664
1797.49738061
1800.13828807
605.45936855
605.239555682
1798.28764995
604.593053156
1798.99376905
1795.44810151
1795.6703443
604.544215154
604.771226432
1793.39218956
1796.6844748
604.11852292
1790.21900989
1787.53270722
603.904285311
603.429227547
1787.65341315
1789.94786901
604.189467947
1790.72389652
1790.46072135
605.562185048
607.132274339
1788.8935362
1791.99096462
605.192737797
1792.46229316
1794.72547705
604.709299521
606.359956332
1792.42248111
1794.45718272
605.147961957
1792.66128898
1795.55647768
607.61993333
607.24610874
1793.67670576
1794.76726175
605.88295759
1795.26708452
1792.08051836
610.276258105
608.77696784
1793.87493205
1793.60344146
610.320946849
1797.01484768
1797.77244419
612.300826495
614.02974406
1795.8567278
1798.90689914
612.188472133
1796.62745014
1796.64615492
609.198064961
611.023449663
1795.11298609
1798.07695681
610.674478606
1798.28037113
1801.2585379
614.143386082
612.694115044
1800.03598866
1799.66302883
612.39141501
1802.76868604
1799.79839641
617.028045616
615.674303754
1801.8848816
1800.8765078
617.10159811
1804.5208569
1805.69114511
618.45706082
619.61868358
1803.82868745
1806.23205306
618.369471617
1803.66969827
1802.88942242
615.731530913
617.144947137
1801.88185641
1804.51345519
617.108826199
1805.35117182
1807.56590263
619.55161779
618.319144097
1806.92276394
1806.0797262
618.358436128
1809.20874406
1807.31555994
621.832944348
620.638210707
1808.84719764
1807.73949941
621.6711279
1810.41687685
1811.00903248
622.778130085
623.306866265
1810.09496152
1811.18877697
622.648039313
1809.57384354
1808.81297812
620.580802365
621.505015131
1808.27852373
1809.8824746
621.53280619
1810.64066824
1811.47831558
623.079183947
622.261624628
1811.37833478
1810.78054663
622.455096364
1812.10955134
1811.6242723
624.378458038
623.783425757
1812.08536661
1811.68465904
624.126683352
1812.53801259
1812.93961964
624.504090775
624.458728696
1812.50379969
1812.94047232
624.313413525
1812.1973878
1811.96331942
623.47347409
623.850499445
1811.81806083
1812.35682212
623.79726262
1812.57435996
1813.06178897
624.159036011
623.989364343
1812.9660537
1812.68130901
623.981000504
1813.7420357
1813.34208766
625.001110195
624.596545276
1813.75080231
1813.36379382
624.918734146
1814.18138395
1814.68213278
625.632858602
626.789493524
1814.20484518
1814.6327665
625.593438673
1813.78403266
1813.45093034
624.394304924
624.881640317
1813.38875791
1813.84629164
624.847044788
1814.22359236
1814.76422042
626.887676566
625.681265001
1814.67149236
1814.275774
625.612582331
1813.84380736
1814.80243301
630.136932744
628.524801856
1813.93690975
1814.71713232
630.250708457
1811.53490832
1808.43023298
631.336640969
631.539682719
1811.65976941
1808.21122101
631.496151383
1813.8468558
1814.86744514
628.653368242
630.571942526
1814.71852706
1814.00835668
630.370199697
1811.55161714
1808.45671793
631.695346368
631.84990666
1808.20573484
1811.75087508
631.631122742
1800.47689865
1804.59993692
630.791645853
630.86299997
1800.70118744
1804.33459174
630.873678841
1797.88165741
1796.4948468
631.000569916
632.204302465
1798.05045203
1796.57135015
631.165639873
1800.40148209
1804.48186234
630.998325979
631.095579958
1804.29428369
1800.4366711
630.975376729
1797.76876327
1796.03254425
632.193069524
631.138061922
1796.42152443
1797.66508159
631.207547322
1793.57685114
1795.38516195
637.613307919
634.533523375
1793.66174584
1795.44216363
637.674801248
1790.87172948
1790.62775796
641.775113444
621.988096963
1790.96044296
642.000014908
1790.64629383
1793.3178872
1794.8232894
634.373223909
637.129234506
1795.2466975
1793.07731377
637.419219264
1790.67186284
1790.48420571
621.945513435
641.203471294
1790.47415565
641.627038752
1790.5915367
1799.97950885
1800.57108056
605.666217289
605.311313207
1799.27625272
605.945823272
1800.15987193
1799.17243941
1797.24735472
605.523940418
606.711085499
1797.90778747
1798.44660175
606.292405001
1800.29888284
1801.16148956
605.510983383
606.645041832
1800.47801696
606.295525507
1800.38573461
1799.90553316
1800.26213462
607.078983112
606.549157207
1799.47409206
1800.18803734
606.633769797
1798.10205042
1796.62286619
607.132879892
606.95664002
1796.44426166
1798.10858474
607.494194772
1798.28190737
1797.27698571
607.976919606
609.266649986
1796.68767327
1798.8744215
608.128578778
1799.40815279
1800.2829374
607.432979405
608.442774795
1799.3095241
1800.47214902
607.905296726
1799.67945557
1801.40772599
609.748375448
609.19801185
1800.25342136
1800.83614327
608.633859556
1800.84515872
1798.17471362
611.330825295
610.443471868
1799.48747805
1799.73219959
611.695753211
1802.08118037
1802.37072493
612.883299044
614.626956192
1800.89976193
1803.42485508
613.184963754
1802.00012384
1802.11859131
610.972431563
612.634014369
1801.02613602
1802.9753515
612.173041322
1803.13149439
1805.11271799
614.955553393
613.837663336
1804.36474736
1803.93730683
613.567999099
1806.21039538
1803.88403465
617.234137186
615.992460414
1805.40255992
1804.79967077
617.404058728
1807.56264221
1808.1164978
618.404499221
619.788843695
1806.83073519
1808.66444943
618.745066177
1806.90220206
1806.33832723
616.27137375