/*--------------------------------*- C++ -*----------------------------------*\
| =========                 |                                                 |
| \\      /  F ield         | OpenFOAM: The Open Source CFD Toolbox           |
|  \\    /   O peration     | Version:  v1906                                 |
|   \\  /    A nd           | Web:      www.OpenFOAM.com                      |
|    \\/     M anipulation  |                                                 |
\*---------------------------------------------------------------------------*/
FoamFile
{
    version     2.0;
    format      ascii;
    class       volVectorField;
    location    "3.05";
    object      U;
}
// * * * * * * * * * * * * * * * * * * * * * * * * * * * * * * * * * * * * * //

dimensions      [0 1 -1 0 0 0 0];


internalField   nonuniform List<vector> 
28582
(
(0.805356507358 -0.0023426219274 9.51684872908e-06)
(0.803875733139 -0.00348623937292 -0.000116778090374)
(0.805151989567 -0.00217731225127 0.000159202574742)
(0.803639558749 -0.00327879091237 -0.000325139557189)
(0.804533165571 -0.00257347135576 -0.000271342551977)
(0.802872027356 -0.00361631993539 -0.000798880200158)
(0.80473536352 -0.00224341665277 -0.00097000859364)
(0.803211253144 -0.00336187644916 -0.0021875040583)
(0.535599845089 0.123722895319 0.00251293154959)
(0.490143868479 0.0771307401451 -0.00107122194093)
(-0.0228003336133 -0.0137249700015 0.016940044233)
(0.804102774355 -0.00298846976807 -0.0010989856677)
(0.797882467962 0.00166151192328 0.000524027556651)
(0.794865710455 0.000806208943203 -0.000445646175164)
(0.8019454848 -0.00365857886019 -0.00218245596796)
(0.801783065411 -0.00295044067322 1.05088996784e-05)
(0.794150861765 0.000461011383819 -0.000539607592373)
(0.801052555986 -0.00407974308059 -0.00209196847562)
(0.800851122383 -0.00271278739296 -0.000817838512577)
(0.808503087105 -0.000953429175979 3.03504526962e-05)
(0.802639488636 -0.00362559018478 -0.000288938534629)
(0.802120649093 -0.00353745621837 -0.000497590510111)
(0.808329234711 -0.00109302460688 0.000655280861175)
(0.802265164805 -0.00347066480851 -0.000999879798514)
(0.801807730709 -0.00353703441739 -0.00158083673247)
(0.808418870511 -0.00114174181156 0.0014794135715)
(0.801179500351 -0.00369226817408 -0.00181400260938)
(0.809283384652 0.000697617625941 0.000891257433442)
(0.800992576834 -0.00382995354854 -0.00364660900002)
(0.513239393922 0.0640838854477 -0.0017209922627)
(0.02002801815 -0.0276731301882 0.0157588789743)
(0.00779066760493 0.0199444920206 -0.0554120757375)
(0.808561775989 -0.00158522657155 0.000760195376978)
(0.806279895229 -0.00172457465655 0.00304564299491)
(0.79957623822 0.000111088136061 0.00258138501175)
(0.798788692874 0.000663844803737 0.00237707020474)
(0.804912942466 -0.00192707324661 0.00279444300602)
(0.799548950503 -0.00395394512861 -0.00408571658167)
(0.800788424972 -0.00316552180204 -0.00144132703407)
(0.799528624302 -0.00333482360319 -0.00212246315794)
(0.800313420369 -0.00422949340804 -0.00261232653956)
(0.792461231744 -0.000914631970565 -0.00181928187704)
(0.800095406281 -0.00296592960481 -0.00141239701151)
(0.798808001942 -0.00210264710032 -0.00259500560066)
(0.499218224221 0.116472186439 0.00125604365041)
(0.504006744721 -0.00572555803319 -5.93532583867e-05)
(0.107096988245 0.0435838249768 0.0327771889067)
(0.0853001572483 0.0301331890961 0.0843112522257)
(0.484105037663 0.0953299563208 -3.42576395441e-05)
(0.0901360657827 0.0158875118083 0.117919392845)
(0.803898727182 -0.002551345205 0.000496470268901)
(0.803509149918 -0.00344614738812 -0.00120031985165)
(0.796692263489 0.00154542231403 -0.000199791943028)
(0.79764756649 0.000303599827424 -0.000848761806714)
(0.803449621577 -0.00313173891224 -0.000871752323369)
(0.796649593785 0.000175999029619 -0.00120169650202)
(0.803706563546 -0.00281281781095 -0.00021932294303)
(0.803458150701 -0.00360873721806 -0.00154247525089)
(0.803532274943 -0.00328002181329 -0.00112007594583)
(0.795752319024 0.00125041402022 -0.000643229866303)
(0.794768186423 0.000163102092439 -0.00134118881564)
(0.80344237757 -0.00367702520396 -0.00165097866775)
(0.795688288195 0.000254221540692 -0.0013405586615)
(0.803645248597 -0.00312943608166 -0.00105478062565)
(0.802674762545 -0.00378601173612 -0.00166221468982)
(0.803250743439 -0.00343018927028 -0.00153885959785)
(0.793651066082 0.000172235942863 -0.00046994340338)
(0.794114627797 -0.000108369427874 -0.0012027316886)
(0.803235685596 -0.00369491504387 -0.00188945720019)
(0.793756050526 -0.000318157050798 -0.000923180902077)
(0.802658536448 -0.00363125904907 -0.0014011128435)
(0.80112816294 -0.00391962383036 -0.00208656796371)
(0.79339796563 -0.000220906610975 -0.000618027441423)
(0.793297414504 -0.00106903462051 -0.000995688393232)
(0.801945793137 -0.00386429889648 -0.00219415713607)
(0.793493964489 -5.06670489904e-05 -0.000529756744501)
(0.793560300268 -0.000664735922892 -0.000920063290545)
(0.801924923875 -0.00382281608435 -0.00194710098885)
(0.800721267761 -0.00173952055061 0.00042880170094)
(0.792724496421 -0.00124093728667 -0.000697691587585)
(0.792694093401 -0.00128595394391 0.000620100520186)
(0.801736735101 -0.00259370100159 -0.000715204435378)
(0.792872991289 -0.00109757457083 0.000694863420253)
(0.801649907866 -0.00159006001339 0.000369609799385)
(0.792943318069 -0.000948645537509 -0.000507676296033)
(0.55298274628 0.113422037258 0.00268661215782)
(0.206751482649 0.0444654061475 -0.010606555572)
(0.489741620775 0.0521551920841 0.00514544371379)
(0.52645415295 0.0980060070017 0.00443512746511)
(0.115439854101 0.064528617835 -0.0949247250509)
(0.111051064222 0.00509287122656 -0.0814138602283)
(0.511147353218 0.00420027610486 -0.00243140186447)
(0.115178314551 0.0784551406235 0.0592567974355)
(0.0569363243678 0.0465156449716 0.0679673341938)
(0.498849156327 0.0115392741991 -0.00639620814909)
(0.166856369783 0.0777847131913 0.0993241066071)
(0.511959087783 0.0515317592135 -0.00288172314505)
(0.0517607395222 0.0465728048019 0.087773347348)
(0.807770635038 -0.000463721687053 0.00421596776368)
(0.809333069211 0.00179760206426 0.00316704467322)
(0.799165027469 0.000542974251703 0.00222083031022)
(0.799610432019 -0.000370242402121 0.00241605512186)
(0.808830145039 0.00103345711571 0.00264782063953)
(0.808440741537 0.000577449254898 0.00287810728838)
(0.799447476195 -0.000265367919834 0.00364464527646)
(0.806836330941 -0.00152291396264 0.00395325346514)
(0.807529963484 -0.00158777620032 0.00298091922877)
(0.799050411418 0.000716424167409 0.00211277243427)
(0.798238929112 -0.000625713341279 0.00222147733429)
(0.808278383609 -0.000129440945434 0.00273871382383)
(0.806167479259 -0.00268308115653 0.0028388700295)
(0.799020189152 -0.000224886324106 0.00366925064512)
(0.799018680995 0.000543813099118 0.00128486213831)
(0.798946125184 0.000533508965363 0.00115976490146)
(0.804655445634 -0.00250690301132 0.00267165659362)
(0.805909761817 -0.00222201733267 0.00487839104262)
(0.798375507444 0.000227834467379 0.002528513815)
(0.805216419055 -0.00279970200599 0.00384975800872)
(0.799257079218 -0.000283682078166 0.00367738326096)
(0.80043422549 -0.00411156172665 -0.00268956946628)
(0.793293808427 -0.000486299354747 -0.000866351307573)
(0.793209969794 -0.00150178529869 -0.00104698517341)
(0.799511796874 -0.00436054035786 -0.00294603815309)
(0.793101163284 -0.00066702221076 -0.00115535191533)
(0.799585930135 -0.00415260036916 -0.00286762745396)
(0.79318720159 -0.00183717309892 -0.00138276956231)
(0.798974847219 -0.00449108727398 -0.00384908827914)
(0.798079820051 -0.00424108092661 -0.00408481930741)
(0.792923039721 -0.000769764669727 -0.0013721602991)
(0.792522502461 -0.0021997861375 -0.00251510212446)
(0.798952186967 -0.00426018154304 -0.00367066692812)
(0.798112197477 -0.00452292424327 -0.00430874430803)
(0.792895369058 -0.00206270651459 -0.00182259917409)
(0.799162401586 -0.00206468896391 -0.00156165658596)
(0.799909662964 -0.00180111642987 -0.000529746858658)
(0.792563406226 -0.00169333209008 -0.0009088909644)
(0.792610675492 -0.00150743380934 0.000133734430976)
(0.792547800597 -0.00172296207436 -0.00108016333371)
(0.799341801327 -0.00311995801668 -0.0020305064579)
(0.792618849711 -0.00178176653034 -0.00150965564425)
(0.792464762233 -0.00176205402245 -0.00168080348938)
(0.792312751337 -0.00183146286235 -0.00269394329622)
(0.798176546897 -0.00203693448818 -0.00359723376058)
(0.798780316403 -0.0032416163569 -0.00325663383544)
(0.792190558869 -0.00219797409466 -0.00282495227183)
(0.798233314246 -0.0032430381581 -0.00376891831132)
(0.792291034354 -0.00203452739472 -0.00214427217532)
(0.801080082861 -0.00372608075421 -0.00323523748329)
(0.799159956186 -0.00402463808376 -0.00549040915827)
(0.487851248381 0.0436154336561 -0.00404006913394)
(0.0919568852702 0.00442395003588 -0.114594866266)
(0.805544196292 -0.00322913387561 0.00220546696515)
(0.798054833668 0.000654377772753 0.00110857316467)
(0.799327846227 -0.00337692698925 -0.00345773151814)
(0.799252623127 -0.00320926862617 -0.00520368244524)
(0.791812138125 -0.00113641583086 -0.00229880510827)
(0.792351093161 -0.00163935865644 -0.00356701617031)
(0.788846099492 -0.00029056595055 -0.0050983658653)
(0.800624591162 -0.00303734919966 -0.00594498718075)
(0.803436380321 -0.00293065165122 -0.00771462420706)
(0.7871156205 -0.00035561265192 -0.00614555388069)
(0.785440690716 -0.000320949388824 -0.00977180402784)
(0.548025073577 0.138568335313 0.00359551832627)
(0.45632634483 0.0147254813716 -0.00639403954689)
(0.392460007165 0.027775644258 -0.00519438191339)
(0.0727732134672 -0.0256014008987 0.123488361485)
(0.222217729155 0.0128976593072 0.111644159333)
(0.224958175795 -0.017782136409 0.146540258038)
(0.278253255378 0.0467698877032 -0.010273087166)
(0.207174900768 0.0591649068293 -0.0195596424944)
(0.804734681235 -0.00424068378305 0.00204657334845)
(0.804359298948 -0.00287917047508 0.0023734867799)
(0.797845942895 0.000550986415136 0.00113532638014)
(0.796920954614 0.000535664339074 0.000385095020988)
(0.804838351714 -0.00350575994476 0.00229623394827)
(0.796905460884 0.000330145671967 0.000842867840205)
(0.804137619472 -0.00336177488253 0.00177901726176)
(0.797363571319 -0.00412520236968 -0.00652259971175)
(0.797744892378 -0.0042875994547 -0.00519373031594)
(0.790432795661 -0.00120908252112 -0.00307714996394)
(0.791795774102 -0.00218823304967 -0.00290697586153)
(0.797069206164 -0.00429791917746 -0.00614727844699)
(0.797809291418 -0.00431612407895 -0.00563160360485)
(0.790965611942 -0.00200492881698 -0.00427888045708)
(0.797642752819 -0.00280215270681 -0.00556088269599)
(0.798243468307 -0.00205401818371 -0.00477256879376)
(0.791790658486 -0.00194009101795 -0.00307185446522)
(0.791678620543 -0.000941284883884 -0.00401275464638)
(0.798105122832 -0.00328141428403 -0.00493727041835)
(0.791130687852 -0.00140930293716 -0.0039598917083)
(0.797975621057 -0.00164182842991 -0.00523613077649)
(0.797732482618 -0.00249709160708 -0.00687889534254)
(0.797553246038 -0.00155802733452 -0.00721912856045)
(0.7886715391 -0.000627299359311 -0.00593672569437)
(0.79063774205 -0.000798767041619 -0.00430929872993)
(0.797557943276 -0.00251267231195 -0.00827233902557)
(0.789975252684 -0.00090326237303 -0.004754989375)
(0.798063251489 -0.00156550524788 -0.00603540340271)
(0.799738667017 -0.0028182439999 -0.0115417316239)
(0.798274168091 -0.00182435625145 -0.008272715426)
(0.786902258911 -5.47702048459e-05 -0.00644372463801)
(0.786060559578 8.57599276628e-05 -0.00748615814021)
(0.798607942637 -0.00242515806537 -0.00912863879928)
(0.785919255631 0.000168225231173 -0.0077414668635)
(0.799277469232 -0.00227587186618 -0.0110758708253)
(0.801882550554 -0.00306993320922 -0.0112188401411)
(0.805039369928 -0.00319528526112 -0.0136094081561)
(0.785652069731 -0.000434388883919 -0.00966063372004)
(0.78487131779 -0.00038468951137 -0.00902832932906)
(0.805235933836 -0.003369618062 -0.0132300270953)
(0.785005020709 -0.00030150026283 -0.00870328365779)
(0.801735895065 -0.00279250006085 -0.0111815766665)
(0.790394747045 0.00983447300791 -9.90132545239e-05)
(0.796064759012 0.0107222836535 -0.000544900416304)
(0.800580252487 0.0157868993039 -0.00184447379981)
(0.803065724172 0.00996808151161 -0.00160382172459)
(0.74823524318 -0.0526213151228 0.00217010315597)
(0.508812327442 -0.0680349911399 -0.00756830605437)
(0.75707270256 -0.0780708216212 0.00214663094337)
(0.537838376388 -0.1044457435 -0.00268689543112)
(0.537280685967 -0.102990573004 -0.00148614374428)
(0.0188103937668 -0.0352922436747 0.0348448768099)
(0.0874219119285 -0.00769606333506 0.193780085909)
(0.0123452344416 0.0193117535318 -0.0545094737619)
(0.0934388083671 0.045873008221 0.0739008122334)
(0.0492869209966 0.0507070806917 -0.0950357966224)
(0.156309724575 0.0925178451732 0.146428159724)
(0.787149047829 0.00130759190891 0.00041551698931)
(0.788605854379 0.00460851484206 0.000415325743916)
(0.793769711183 0.00148484115263 0.000229150550532)
(0.794690431844 0.00256834988428 -0.00037571672994)
(0.785858450887 0.00678418762049 0.00159244109572)
(0.793393092146 0.00362640290516 -0.000216536074212)
(0.790457828191 0.0071821676849 0.000854622297438)
(0.793449385554 0.00842628835641 0.000932127646427)
(0.795231132163 0.00298411375273 3.62324357963e-05)
(0.797127209323 0.00324350590456 0.00111721655594)
(0.789312320449 0.0152098004791 0.0008130335608)
(0.793502687265 0.0113163448929 0.000221246420583)
(0.794218864275 0.0150306735496 -0.000169877927131)
(0.794446181757 0.00361803586596 0.000118294444228)
(0.793266281906 0.00693519714996 -0.00393197781783)
(0.796560740855 0.00432861144383 0.000987471026712)
(0.797055510884 0.0064952921201 -0.00309042941327)
(0.797949537021 0.0188313997882 0.000669677579829)
(0.803844202448 0.0227227674788 0.00240844996369)
(0.792954899668 0.00804444341094 -0.00383298201634)
(0.80123883391 0.0122741062467 -0.00613692977532)
(0.79659948873 0.00822385061636 -0.00280080434834)
(0.801381345918 0.00883654740661 -0.0035094292171)
(0.797790452592 0.0133721400829 -0.00154579986436)
(0.799414553077 0.0109849746105 -0.00109437524607)
(0.797513430566 0.00374028961358 0.00155184417218)
(0.797664598417 0.00572864109342 -0.00244043430439)
(0.798490064724 0.00459521475582 -0.00155220241647)
(0.80504995829 0.0175000734083 -0.00109502590172)
(0.802106937468 0.0124826882598 -0.00119167334445)
(0.805430332558 0.0135201331218 -0.000770480868165)
(0.797630292963 0.00600311073154 -0.00237253516568)
(0.801682586079 0.00775847963817 -0.00322584741336)
(0.798401024271 0.0050594904858 -0.00149454867238)
(0.800561174159 0.00421377873998 -0.00227369995382)
(0.798814114233 0.0039866548676 -0.00165174140526)
(0.800550605497 0.00442911071136 -0.00242839236265)
(0.797953888326 0.0955495099919 0.00247648819701)
(0.782698409831 0.0181772748953 0.00288812108762)
(0.755186867368 0.0143891035141 0.00237814001888)
(0.190343363695 -0.00763019768531 0.164455089084)
(0.280448663164 -0.0135767090262 0.368837438603)
(0.175619484184 0.0231491090689 0.203177661188)
(0.261589615732 -0.00153292145874 0.367606924416)
(0.205087621799 -0.0145489233839 0.42359042373)
(0.132970359621 -0.0173026404516 0.353248151584)
(0.18535047635 -0.00943668617677 0.397362741214)
(0.112334007761 0.00130876183109 0.313548777033)
(0.774875562039 -0.0543254834502 0.00299380935074)
(0.775311044271 -0.0851221068753 0.00322378311647)
(0.670574577269 -0.055841970404 -0.000986334950107)
(0.754763315511 -0.086208399031 0.00166976509135)
(0.683127866585 -0.0898821522424 -0.0011099707718)
(0.155302054997 0.009466314293 0.164711567057)
(0.247555925983 -0.00469561753256 0.318035844949)
(0.17399640295 0.0393824778911 0.104213898172)
(0.247626669611 0.0391039152014 0.258458493349)
(0.317420720508 -0.0702140379431 -0.00339356380987)
(0.524261718381 -0.0981016822124 -0.00336997701933)
(0.36725051749 -0.0802864625739 0.00032352408229)
(0.163015805081 -0.0113743982926 0.33853098914)
(0.107093331829 0.00799178101865 0.241075959128)
(0.189103667306 0.0511059785924 0.274388865539)
(0.114405480939 0.0681548846981 0.161402674046)
(0.693388265939 -0.0942477820418 -0.000776003787161)
(0.686789228529 -0.0701286696007 0.000187972347834)
(0.186450371558 0.0333058043182 0.032322882866)
(0.288869711112 0.0478139592799 0.200540941528)
(0.350013907096 0.0746129915614 0.156182871212)
(0.401805518013 -0.078578342396 4.12682500329e-05)
(0.533950428199 -0.104035601368 -0.00209326954185)
(0.438261522153 -0.0777323801756 -0.000442916317169)
(0.234422816947 0.0659041914231 0.223450288778)
(0.1817890026 0.0689160176631 0.145502659133)
(0.336660945512 0.0878630523632 0.1928603822)
(0.31099951541 0.0935832710979 0.137613562533)
(0.787757935926 0.00108806210462 0.00107249778876)
(0.785814445837 -2.04425044229e-05 0.0010972557825)
(0.794191044033 0.0014868295262 0.000442069992126)
(0.793395939411 0.00175025019664 -9.40389636204e-06)
(0.786307995298 0.00191220096086 0.000533644947671)
(0.794783211455 0.00166183755387 0.000465733061606)
(0.787346581828 -0.000330222896987 0.0012521612747)
(0.788525415382 0.00309642836272 0.00109031020647)
(0.787913463009 0.00586287622619 -2.38455358251e-05)
(0.793803661014 0.00208213773579 -0.000103220693005)
(0.795173644364 0.00205260443987 -0.000139802746461)
(0.787012082358 0.00379016546506 0.000432293456912)
(0.789283736242 0.0046876544418 0.000644846682295)
(0.795018604134 0.00171648284526 0.000380761028486)
(0.784786512909 0.00619457331641 -0.000831536131177)
(0.787162104515 0.0070391303377 0.000252350904114)
(0.792917272606 0.00309082594057 -0.000471953338514)
(0.792003248791 0.00406200153152 -0.00152643219539)
(0.785819785634 0.00490028275364 0.000318423774514)
(0.786048670832 0.0087442226188 -0.000892352765921)
(0.791880279144 0.00307032925795 -0.00132408086485)
(0.791559804023 0.00734504792386 0.0011298163933)
(0.789260601969 0.0072322059446 0.000113308331258)
(0.795665957294 0.00272615732276 0.000153923589266)
(0.795479715494 0.00322521340177 0.000312229706455)
(0.790398079117 0.0064349153427 0.00070518475652)
(0.790446554323 0.00852536058032 0.000493697798118)
(0.796276579277 0.00290864772885 0.000812557780522)
(0.792788753968 0.0080885811453 0.00178267838478)
(0.792976460804 0.00959218401162 0.00131992898939)
(0.796143050726 0.00279868535326 0.00104195467596)
(0.797104126369 0.00262090219398 0.00109384409219)
(0.791841621115 0.00902151212301 0.00114599329782)
(0.793857458056 0.00842023009522 0.00174491717835)
(0.796744429842 0.00231790270124 0.00135048259541)
(0.789794711026 0.0117351828166 -0.00129507191986)
(0.788726358595 0.00898015146544 0.000432298403786)
(0.7929390182 0.00461536018049 -0.00118557748233)
(0.795215804544 0.00368022125114 -0.000174117038129)
(0.787964330788 0.0104490814597 -0.00130717686127)
(0.790355890062 0.00994985442649 0.000201216337909)
(0.795076118606 0.00486875789281 -0.000998019567943)
(0.790576029099 0.013445100034 -0.00138325528028)
(0.789644144764 0.0150324227484 -0.00447280291528)
(0.79308350443 0.00676343367582 -0.00269040704517)
(0.793233487545 0.00692777510345 -0.0033603471041)
(0.788510105492 0.0124927816086 -0.00206445338856)
(0.791361186348 0.0157960630487 -0.00389893025702)
(0.793751669596 0.00647164948707 -0.00140081769236)
(0.791527642584 0.0119277373125 -0.000998572648934)
(0.793208259453 0.0110009753608 0.00112851668717)
(0.796029236566 0.00422769209286 0.000308560502698)
(0.796070752946 0.00460544236415 -0.000431579794908)
(0.791805917982 0.0108182017372 0.000749288287788)
(0.792830677702 0.0123835423884 -0.000747381191596)
(0.795794224829 0.00433807749212 -0.000498414392103)
(0.792454091311 0.01380862086 -0.00119330497887)
(0.795612213858 0.0158036214746 -0.00404744852825)
(0.794362727951 0.00674772642635 -0.00290781462384)
(0.796169761958 0.00504031463219 -0.00185075588424)
(0.793531976765 0.0156902600095 -0.00375744282544)
(0.794156557784 0.0135536721704 -0.00165549068733)
(0.795291188834 0.00517618060186 -0.00104447967349)
(0.797668870157 0.0204057875302 -0.00526263914615)
(0.791923928517 0.0167073468942 -0.00288874056585)
(0.79319440681 0.0102739292177 -0.0054939051459)
(0.794402255015 0.00767545981471 -0.00538835549708)
(0.794635292915 0.0198133271811 -0.00472308233347)
(0.794336355365 0.0169961605248 -0.00432262055806)
(0.797158615676 0.010305264136 -0.00582406003407)
(0.801828717478 0.0220002515932 -0.000991580748685)
(0.805347643981 0.0242472440489 -0.00278253608898)
(0.797039370243 0.013731395481 -0.00734551296006)
(0.797930474298 0.0117911532439 -0.00406014058279)
(0.79972767673 0.0223842191718 -0.00414782061171)
(0.797202631371 0.0124552260689 -0.00295628989759)
(0.80563645486 0.0238521404682 -0.00194101099395)
(0.799862131222 0.0195492375727 -0.00540233419777)
(0.798092235771 0.0169836389685 -0.00276810090552)
(0.796109424051 0.00929038881813 -0.00500599609295)
(0.796969558875 0.00830126682108 -0.00376111422097)
(0.796451135693 0.0177157906387 -0.00427903614688)
(0.800667254883 0.0187604766427 -0.00415183085658)
(0.798271674315 0.0088632385059 -0.00475110910715)
(0.803436796779 0.0204087707864 -0.00170460672482)
(0.807805014601 0.0201825365129 -0.00285026525271)
(0.798605573059 0.0100916067447 -0.00297622531377)
(0.798957310593 0.00752750646719 -0.00464210700028)
(0.803987909267 0.0188805173234 -0.00390363920393)
(0.798337633249 0.00890275010247 -0.00239511952395)
(0.806842159505 0.0218298502638 -0.00261074939534)
(0.795679608043 0.011171538582 -0.000237075209715)
(0.79450065165 0.0108112662281 0.00149836270833)
(0.796761603016 0.00439225980896 0.000323906511638)
(0.797927987873 0.00365628438138 0.00111394751859)
(0.794426057331 0.0118710176067 -0.000481667526842)
(0.795741855342 0.00991217374894 0.00109348121304)
(0.797964340977 0.00452276869775 0.000618881783464)
(0.796827927628 0.0121795388473 -0.000855206868357)
(0.797187802596 0.0147424488699 -0.00375629704961)
(0.797214404054 0.00573428356105 -0.00133116918878)
(0.797143016396 0.00539061359487 -0.0017394191096)
(0.795660643246 0.0135187646878 -0.00145490452033)
(0.797913948268 0.0135452847955 -0.00311800548709)
(0.797505357341 0.00521318584152 -6.19625717993e-05)
(0.797922847443 0.0111016190527 -2.49027124553e-07)
(0.799776354221 0.010920396327 -0.00249023627817)
(0.797544263023 0.00457176652351 -0.0010544451465)
(0.798178268381 0.00394729303162 -0.000558170225508)
(0.798860305715 0.0119210253274 -0.00203051653732)
(0.798739122151 0.009921770165 -0.000739722083202)
(0.798173160659 0.00409976546569 0.00035274068576)
(0.802898488471 0.0149603925566 -0.00453115971164)
(0.799378707044 0.0157047478952 -0.00289878589189)
(0.797666353791 0.00681272134714 -0.00286700886965)
(0.798161061399 0.0052015447931 -0.00321359538596)
(0.801910243593 0.0168565231448 -0.00399570630581)
(0.80020541177 0.0138461004664 -0.00349638932774)
(0.799486228692 0.00605591659745 -0.00335516246899)
(0.805379177801 0.0153742342919 -0.00214400808863)
(0.808128074923 0.018179161918 -0.00318398921511)
(0.79963207143 0.0083274847256 -0.00384158998968)
(0.799664109084 0.00636474273403 -0.0014981930955)
(0.804691267255 0.0177778198471 -0.0038950496122)
(0.799572533374 0.00676391510805 -0.00158339773501)
(0.807641211108 0.0156816949902 -0.00205135547846)
(0.803427501393 0.013471483857 -0.00375358800283)
(0.801709715469 0.0115079571901 -0.00205601655567)
(0.798548581959 0.00539711476086 -0.00264388769643)
(0.798518545517 0.00502781562276 -0.00174144361331)
(0.800971688747 0.0129085874987 -0.00263829049509)
(0.803610464891 0.0123475687958 -0.00265528385353)
(0.799632377492 0.00505331638209 -0.00300697677087)
(0.805560174331 0.0134005857771 -0.00184310167221)
(0.807292651411 0.0121434520852 -0.0022952222586)
(0.799905301691 0.00460125732466 -0.00123224345274)
(0.799384042315 0.00426416597117 -0.00229994469795)
(0.805333792963 0.012044177272 -0.00243334278941)
(0.799814820317 0.00452715513818 -0.00162372989188)
(0.807556565874 0.0134282074325 -0.00140235475498)
(0.804245918582 0.00956418217527 -0.00356756256173)
(0.802449381607 0.0105547954394 -0.00218755171845)
(0.798862916737 0.00393539708656 -0.00171530709488)
(0.798679717848 0.003501904819 -0.00208164901491)
(0.803977955638 0.0108169422683 -0.00247842708572)
(0.802797289996 0.00912426235269 -0.00277727318145)
(0.799231042419 0.00344326276381 -0.00268439481769)
(0.807245796109 0.0112986717735 -0.00243640678805)
(0.799550190216 0.00437630554325 -0.00218975706773)
(0.805507635992 0.0111042589581 -0.00237096682445)
(0.807070482583 -0.00413876510654 -0.000206064116483)
(0.804591446733 -0.0054413036653 -0.000386532110522)
(0.80269691428 -0.00519791559098 -0.000518070769341)
(0.802277201351 -0.0031713901078 -0.00067847812091)
(0.803352475236 -0.00260066702538 -0.000632934927336)
(0.801631498972 -0.00828502361441 -0.000467870626112)
(0.806581574326 -0.00464736897096 0.000373382163731)
(0.804325678882 -0.00605988326624 -0.000164766399959)
(0.802461116435 -0.00572519510883 -0.000882845287665)
(0.802175492912 -0.0030496944977 -0.00225711326463)
(0.803604864817 -0.00250904831065 -0.0018879713216)
(0.801622748168 -0.00813439859547 -0.000904179738254)
(0.822252617323 0.00458362881189 0.00195244767157)
(0.81864937696 4.93474424303e-05 0.00702522453806)
(0.790982774248 -0.00787163608499 0.0168471824732)
(0.787232488106 -0.00676245850268 0.0107812467495)
(0.790491435928 -0.00427796159947 0.0047455970782)
(0.792699351781 -0.00254198527188 0.00153852627709)
(0.798717803557 -0.00126888155902 6.20862152224e-05)
(0.793415885698 -0.00248595736892 -0.000170378079916)
(0.827537594685 -0.00305093950427 -9.14181496299e-06)
(0.821655307408 -0.0120394271535 0.00262328875463)
(0.805391970899 -0.0167921942191 0.0053053464578)
(0.797959381105 -0.0132810136725 0.00298368730493)
(0.79700878572 -0.00914484320519 0.00120881921665)
(0.796725843129 -0.00591155124465 5.60766586039e-05)
(0.800091932508 -0.00345003527696 -0.000363209995986)
(0.795279157597 -0.00710628532607 -0.000375573735307)
(0.818122452542 -0.00491222595242 0.0009019138125)
(0.813030894208 -0.00893271623385 0.0012646460687)
(0.805724080727 -0.00980950577239 0.00128172352281)
(0.801033784318 -0.00839650498756 0.000849269877614)
(0.799613283459 -0.00681714689633 0.000263279188299)
(0.79923345146 -0.00487005067497 -0.000376656011047)
(0.801301058101 -0.00341198073802 -0.000537254003884)
(0.797346889254 -0.00879668551818 -0.000425925211383)
(0.813107373642 -0.00163154175535 0.000263166692365)
(0.809800874764 -0.00636899350668 0.00061581783581)
(0.805074412325 -0.00795851519658 0.00053704453315)
(0.801867762795 -0.00738501647851 0.000210984645173)
(0.800942601937 -0.00651334031656 -9.10171211173e-05)
(0.800630814212 -0.00493876405589 -0.000530875423171)
(0.802323878423 -0.00355881294451 -0.0006178172784)
(0.799348508071 -0.00980461865599 -0.000447538343604)
(0.801873834611 -0.00487008133737 -0.00054900090759)
(0.801786903596 -0.00387512689519 -0.000788391600528)
(0.803004054837 -0.00305107414737 -0.000694240072307)
(0.800736861849 -0.00924427486361 -0.000488910969654)
(0.647030391386 0.0424431479022 0.0154177211852)
(0.654436700785 0.0358589669674 0.0241742612652)
(0.725809446131 -0.00835896110035 0.0248351057805)
(0.757036411776 -0.0100232697741 0.0120302656449)
(0.777765351614 -0.00633413248134 0.00454036325041)
(0.787195749578 -0.00349656631626 0.00136706734299)
(0.797427148683 -0.00161493179417 -0.000727885495808)
(0.792131712181 -0.00287060450192 -0.000259123664487)
(0.779515483448 0.00518158857865 0.00991052185105)
(0.786030577255 -0.0141237169073 0.0170776204399)
(0.790229486668 -0.0263956534334 0.0101476400107)
(0.790486450249 -0.0202755326353 0.00547778223722)
(0.793861805757 -0.0124185668008 0.00184169598654)
(0.794681160995 -0.00759224143089 0.000156911462055)
(0.800033231835 -0.0039048828324 -0.00116248114877)
(0.794916781868 -0.00756223562657 -0.000499461421111)
(0.819475961407 -0.00488800349656 0.00114154393443)
(0.813188653494 -0.0129230071444 0.00167321127035)
(0.805876956082 -0.0134077644815 0.00152168751012)
(0.800558619279 -0.0109336968787 0.000729355175408)
(0.799034396725 -0.0082207859527 -0.000193080991215)
(0.798611809173 -0.00557751761613 -0.00139685440703)
(0.801417787839 -0.00370487664546 -0.00177180264803)
(0.797113861042 -0.00892862758612 -0.00077316385428)
(0.813453420117 -0.00205226526232 0.000711931705784)
(0.810027172354 -0.00546254432933 0.000916143198585)
(0.804895651589 -0.00700153864451 0.000408881494215)
(0.801309177764 -0.00690402320144 -0.000340201019017)
(0.800365863103 -0.00636417644394 -0.000915690358508)
(0.800283559206 -0.00496303032455 -0.00189118578959)
(0.802412489552 -0.00362626842391 -0.00198461280233)
(0.799085793966 -0.00987461115971 -0.000878489410349)
(0.801762109914 -0.00522542864349 -0.00134973834409)
(0.801755553998 -0.00402011896807 -0.00227085782902)
(0.803286678642 -0.00308311110218 -0.00199167028858)
(0.80072656271 -0.00927959830059 -0.000920126583049)
(0.638572824638 -0.0189671348773 0.0262010853195)
(0.642987820406 -0.022392314444 0.0258672534662)
(0.71640657066 -0.0295458178838 0.00142347458653)
(0.752611583013 -0.0167944747207 -0.00299828504633)
(0.775887114077 -0.00820862033131 -0.0033626399365)
(0.785704281733 -0.00394123169696 -0.00417373181869)
(0.798124918433 -0.00170995849709 -0.00414170702067)
(0.791670503383 -0.00315393164429 -0.0028761435957)
(0.742130537972 -0.00227820926688 0.0249048482541)
(0.756472110263 -0.0224183264273 0.0183706181513)
(0.78967224694 -0.0278375545116 2.37235897685e-05)
(0.789063508571 -0.0211863453994 -0.00106753377173)
(0.792071067439 -0.0131780609195 -0.00207422576985)
(0.79347803619 -0.00794727185036 -0.0043281790128)
(0.800419547142 -0.00443797270641 -0.00403748545805)
(0.794295045531 -0.00864985560947 -0.0027515079704)
(0.821171587697 -0.00560322749889 0.00176306501991)
(0.813935092285 -0.0130662746698 -0.000305376566864)
(0.805139256011 -0.0143324546768 -0.00184655514268)
(0.799074696123 -0.0120839233654 -0.00252004035761)
(0.797718011851 -0.00969495026415 -0.00249358604228)
(0.797802985012 -0.0066321418403 -0.00465875076726)
(0.802136554812 -0.00449449493502 -0.00424091678286)
(0.797189449387 -0.0100356141737 -0.00279947394923)
(0.812108498116 0.00432641215742 0.000926471751604)
(0.813719079484 -0.00255403685321 0.00119824957304)