/*--------------------------------*- C++ -*----------------------------------*\
| =========                 |                                                 |
| \\      /  F ield         | OpenFOAM: The Open Source CFD Toolbox           |
|  \\    /   O peration     | Version:  v1906                                 |
|   \\  /    A nd           | Web:      www.OpenFOAM.com                      |
|    \\/     M anipulation  |                                                 |
\*---------------------------------------------------------------------------*/
FoamFile
{
    version     2.0;
    format      ascii;
    class       volScalarField;
    location    "2";
    object      alpha.water;
}
// * * * * * * * * * * * * * * * * * * * * * * * * * * * * * * * * * * * * * //

dimensions      [0 0 0 0 0 0 0];


internalField   nonuniform List<scalar> 
28582
(
1.00000135057
1.00000125862
1.00000151415
1.00000205246
1.00000076454
1.00000131556
1.00000189339
1.00000232681
0.0163828623386
0.0178180909059
3.31374607041e-09
1.00000327946
0.947565137481
0.94717549149
1.0000031249
1.0000055207
0.948278588034
0.999968135406
0.999961731558
1.00000107206
1.00000243587
1.0000037566
1.00000059217
1.00000345848
1.00000463749
1.00000013396
1.00000220934
1.00000199461
1.00000309279
0.0184173646295
6.18765554823e-07
2.43849832222e-07
1.0000001279
1.00000172853
0.946073235113
0.943491941558
0.999991765078
1.00000285814
1.0000043107
1.00000493065
0.999968689248
0.949195066668
0.999964047908
0.999974024825
0.0169224444166
0.0176274226309
1.46368895764e-06
2.99616914929e-08
0.0174193530551
1.0573479456e-08
0.999987218199
0.999961693022
0.950160315899
0.949909799299
0.999975961592
0.94698285498
1
0.999962727092
0.999973132906
0.94799074909
0.948879150036
0.999967888032
0.947986858052
0.999985451466
0.999965975511
0.999974057522
0.948157379059
0.947605862966
0.999968293106
0.94798147001
0.999979906475
0.99996460314
0.948598768775
0.948857028495
0.999968219477
0.94783451491
0.949138617461
0.999973206982
0.999972638834
0.94966743444
0.948489433723
0.999957941606
0.94831302456
0.999980285541
0.949557331726
0.0159096451569
2.61575139066e-05
0.0156540219754
0.0163920094875
1.36403063037e-05
2.89285376155e-05
0.01789918344
5.86481840418e-06
1.55916588391e-07
0.0189343863802
2.98880082259e-05
0.0192001743044
5.17727156972e-06
0.999950757759
0.999961516147
0.952743741244
0.953052066535
0.999985967978
0.999973960074
0.945470861344
0.999947699368
0.999938722693
0.9500036853
0.950075500097
0.999976258484
0.999962930187
0.944440811515
0.952063101816
0.945983799553
0.999970212341
0.999941987797
0.950870928665
0.999973325475
0.945716667031
0.999966969882
0.949114258595
0.94858674481
0.999971962791
0.948481366936
0.999965673449
0.94954109282
0.99997286454
0.999961239814
0.948266646851
0.949203093216
0.99996093789
0.999972134913
0.950175209232
0.99997680465
0.999974251518
0.949185919863
0.950390678834
0.950586641878
0.999968229377
0.949863913492
0.948613000663
0.948254345082
0.999964822551
0.999972621343
0.949720443581
0.999971946715
0.95066658699
1.00000264475
1.00000293722
0.0204222181212
1.18235286633e-06
1.00000174785
0.945992330088
1.00000528563
1.00000504912
0.949617724691
0.94909619484
0.946732312366
1.00000413121
1.00000387278
0.946863904636
0.946794118839
0.0167692274878
0.0203213756741
0.0221593251711
3.13778209581e-05
6.61806451967e-05
7.54439769135e-05
0.0240497594164
0.0259417037437
0.999937036616
0.999960614768
0.948377290222
0.949469717005
0.999950114784
0.944495963172
0.999975116513
0.999974949634
0.999968695156
0.94898675283
0.948275721636
0.999975174884
0.999973617324
0.94887655877
0.999960298996
0.999966910712
0.947779372898
0.948274686705
0.999965032308
0.948019765815
0.999981004586
0.999961327138
0.999984459425
0.947888485204
0.946638888242
0.99996091961
0.948483157089
0.999986449792
0.999957939022
0.999979996064
0.947333707398
0.946564981487
0.999958570392
0.947374944388
0.999970113811
0.999957837434
0.999967497722
0.947000468641
0.946606904798
0.999957252197
0.947197235296
0.999969206405
0.99999628606
0.999999230489
0.999999655901
1.00000186232
0.00840088304867
0.00940342883096
0.0099638289594
0.01122380851
0.012295795843
1.66524397165e-27
4.77251651918e-09
5.95714302132e-09
1.04634996084e-07
6.12780821609e-07
2.07898680557e-06
1.00000076696
0.999999685652
0.98328031129
0.982184573103
0.999998595336
0.985233690842
1.00000043469
0.999999349586
0.980999428736
0.97599910896
0.999992610749
0.999996311337
0.999993308889
0.984026052058
0.985839984337
0.979135897437
0.978309868337
0.999991519999
0.999992312492
0.986103177814
0.974513524732
0.979585306512
0.966614474268
0.999998978104
0.999999737221
0.976892717315
0.974757423147
0.967274454007
0.999999659372
1.00000023427
1.00000142317
0.976500467978
0.963279658002
0.968546724175
0.955801324763
0.966869615169
0.954517538832
0.00840184598394
0.00852392901463
0.00795117106467
5.593799188e-07
2.26385203038e-08
7.35111234195e-08
3.13559045495e-09
2.33593848762e-08
1.97831577341e-06
4.13367488921e-07
4.88502674087e-06
0.00900085286498
0.0097030593111
0.00862902189359
0.00902908256073
0.00920624596169
1.83464931843e-07
1.28906664023e-06
3.17456302377e-06
3.30543133085e-06
0.0113013445016
0.0101002522714
0.011854501
3.21156769766e-06
7.42624007579e-06
6.32101193578e-06
1.15756320966e-05
0.0102050610861
0.0110034714737
6.85803070272e-06
1.18840456024e-05
2.38507082083e-05
0.0128229499199
0.0120394019312
0.0135597879299
2.12103653511e-05
3.26744898654e-05
4.03468976331e-05
5.35649448712e-05
0.999995962762
1
0.982601316564
0.984443299134
1.00000378854
0.983151891819
1
0.999998465437
0.99999856839
0.984026781194
0.981113494968
1.00000436441
0.999999575104
0.982951925417
1.00000221141
1.00000988812
0.984590457778
0.986155633978
1.00000654392
1.00000813557
0.986494756739
0.999993427742
0.99999722095
0.980142150627
0.980906356646
0.999996493688
0.999997076248
0.980278668191
0.999994641442
0.999991728788
0.979344603322
0.976118132923
0.999996945738
0.999995617012
0.978355167362
0.999997861469
0.999998254798
0.984038861543
0.98045743062
1
0.999996446204
0.982108252132
0.999989900987
0.999990972659
0.982928377996
0.981464920358
0.999992263929
0.999972683584
0.983649849679
0.999995319066
0.999995935533
0.978781233766
0.978784127367
0.999996384063
0.999993015474
0.980497491729
0.999991376286
0.999988690645
0.979605555222
0.975782853003
0.999986364074
0.999984022943
0.982506837444
0.99997732731
0.999990843706
0.980166781754
0.976479055886
0.999983091313
0.999975756141
0.98083953323
0.99997455443
0.999977843505
0.969546133375
0.969801963621
0.999973389346
0.980991715617
0.999964207858
0.999983295829
0.999994205028
0.974140917371
0.973656210415
0.999986395828
0.999985519439
0.978249634118
0.999981526098
0.999970975707
0.968482200189
0.963240674205
0.999965340287
0.978915925028
0.999968150951
0.999989966497
0.999994582612
0.976649580457
0.973388108129
0.999991398018
0.999989091301
0.973262727501
0.999989750603
0.999984769134
0.97311279957
0.972851275053
0.999981041125
0.999982641693
0.975368589594
0.999990097456
0.999980594279
0.971311580665
0.968257041202
0.999989539878
0.999986064113
0.972848733412
0.999980527754
0.999995740716
0.971469742794
0.966319474589
0.999991996305
0.999980088833
0.967825166637
0.999977647281
0.999967702947
0.961398123473
0.962835299149
0.999968023561
0.96922883249
0.999961117667
0.999974574378
0.999982309388
0.964514028276
0.96601015334
0.99997758428
0.999980730121
0.964454613969
0.999976776804
0.99996513991
0.9616547637
0.956705700203
0.999970437048
0.965959400399
0.999974476408
0.999979182414
0.999986497273
0.965715441048
0.963542304276
0.99999240191
0.999988038209
0.960876859821
0.999960865593
0.956797463532
0.999976558256
1.00000105458
1.00000171328
1.00000217325
1.00000485999
1.00000550945
1.00000580012
1.00000108024
1.00000181603
1.00000235684
1.0000054054
1.00000573114
1.00000552634
0.999964311268
0.999947708562
0.999994725939
1
1.0000025612
1.00000482267
1.00000636118
1.00000732229
0.99999307938
0.999975966166
0.999989671143
0.999999480292
1.00000121405
1.00000245273
1.00000330848
1.00000345425
0.999998782819
0.999999189388
0.999999984448
1.00000077463
1.00000170029
1.00000251859
1.00000310927
1.00000314177
0.999999782993
1.00000026788
1.00000107504
1.00000194084
1.00000216248
1.00000260636
1.0000029454
1.00000286309
1.00000314221
1.000003583
1.00000378153
1.0000032949
0.999760944204
0.999973898556
1.00000068246
1.00000272489
1.00000440016
1.00000598396
1.00000881982
1.00000963906
0.999916510438
0.999954114427
0.999999835352
1.00000127063
1.00000244545
1.00000338821
1.00000369614
1.00000322429
0.99999802796
0.999999579948
1.00000044479
1.00000139932
1.00000231764
1.00000306439
1.00000359795
1.00000335058
0.999999621975
1.00000025033
1.00000095108
1.00000162873
1.00000216955
1.00000282887
1.00000328144
1.0000030383
1.00000286564
1.00000299511
1.00000303112
1.00000224119
0.999828483497
0.999981437027
1.00000152615
1.00000249216
1.00000291534
1.00000548179
1.00000741893
1.00000770923
0.999950000949
0.999989849323
1.00000092755
1.00000142827
1.00000178909
1.00000186785
1.00000353624
1.00000422132
0.999998690489
0.999999830441
1.00000051048
1.0000011214
1.00000162932
1.00000207106
1.00000245351
1.00000227756
1.00000011181
0.999999593003
0.99999991003
1.00000051943
1.00000096103
1.00000149283
1.00000194064
1.00000230434
1.00000219313
1.00000081255
1.00000127548
1.00000168041
1.00000187837
1.00000179078
1.00000191281
1.00000157884
1.00000327203
1.00000329952
1.00000298759
0.99999243584
0.999997392474
1.0000008141
1.00000602053
1.0000055117
1.0000087728
1.00000890622
1.00000406371
0.999994189638
0.999994341755
1.00000000951
1.00000485053
1.00000529258
1.00000467624
1.00000421414
1.00000823311
1.0000091638
0.999999718991
1.00000094026
1.0000019718
1.0000013323
1.00000243975
1.00000349216
1.0000034697
1.00000345808
1.00000438327
1.0000040881
1.00000347146
1.00000075193
1.00000094029
1.00000190772
1.00000315198
1.0000039516
1.00000468105
1.00000569803
1.00000505522
1.0000003073
1.00000146165
1.00000239547
1.00000341634
1.0000043619
1.00000528268
1.00000402474
1.00000353656
1.0000027864
1.00000078185
0.0188635040438
0.0198163235409
0.0194829454984
0.0212233610052
0.0238456549745
0.0274370882683
0.0308960124656
0.0349521479951
0.0136619626379
0.0171216152934
0.0188831178675
0.0196452981298
0.0199064405259
0.0211334720504
0.0237425617124
0.0270809926488
0.0306017008953
0.0345322750446
0.0147065043807
0.0175751574564
0.0182731180211
0.0181997739126
0.0185968042628
0.0204373186891
0.0231109558098
0.026149354446
0.0292004056836
0.0336538078328
0.0168028571236
0.0168295888775
0.0169501796153
0.0176820200479
0.0194033582206
0.0222396895527
0.0253003092132
0.0282056714989
0.0324604605977
0.0170254240852
0.0179585644738
0.0191212279733
0.021468041966
0.0244480554853
0.0278849086526
0.0326019120107
0.0239358952555
0.0283141167992
0.0330013000063
7.42442285643e-08
4.4625493348e-08
2.42784142943e-07
5.1227839501e-08
7.9725851557e-08
1.16778744667e-07
2.50883568345e-08
6.29592102067e-07
8.62012783538e-06
3.39404332067e-05
1.15400514306e-07
2.96634716316e-08
1.45711018059e-07
1.25648715497e-07
8.80609547784e-08
-7.26217606094e-28
1.68129108758e-09
4.50206155834e-07
1.0657105424e-05
3.09861020101e-05
1.25027328191e-06
4.12094104216e-08
5.80996759246e-10
3.43813429616e-09
2.72686196843e-08
2.49710429817e-08
9.58623895461e-09
1.51955067679e-07
5.9355351502e-06
2.38675517261e-05
9.27047769725e-09
4.04816123438e-08
7.25374364921e-08
9.22518423908e-09
4.78520601838e-10
1.01948584212e-09
4.60031792003e-08
4.58610194631e-06
2.14284767151e-05
2.47093146348e-07
5.16961889019e-27
1.97961854121e-09
3.61312670609e-08
6.70354132299e-07
8.22606554469e-06
2.34851966228e-05
1.26258950208e-06
1.03313168748e-05
2.99701980757e-05
0.999940862218
0.99999103711
0.99999060386
0.999852230482
0.99987645506
0.999945497946
0.999914460303
0.999979123141
0.999988342967
0.999970368882
0.999956021956
0.999988354095
0.999935735734
0.999979637478
0.999993130879
0.999987299779
0.999977238558
0.999985852966
0.99998412549
0.999990184198
0.999977355135
0.99996983193
0.99997706505
0.999986497435
0.999967288436
0.999971014707
0.99997792585
0.999987630179
0.999884423882
0.999802628578
0.999854834169
0.99975413806
0.999874169372
0.999755376014
0.999847013479
0.999997592886
0.999957482787
0.999996621417
0.999975967444
0.999998442253
0.999969138784
0.999999556025
0.999917530083
0.999982898545
0.999984503706
0.999870746956
0.999913497368
0.999975474672
0.999983480922
0.9999896164
0.999986144845
0.999992387521
0.9999732773
0.999998177398
0.999989743129
0.999997427133
0.999912165277
0.999878707242
0.999928642715
0.999955910834
0.999974848365
0.999980023884
0.999987897093
0.999999737654
0.99998392775
0.999999999941
0.999991898282
0.999999973139
0.999992835674
0.999999723271
0.999972876988
0.999987598843
0.999991520962
0.999987642863
0.999991450922
0.999995237428
0.999995490286
0.999999974227
0.999995144327
0.999999483225
0.999995095174
0.999999847865
0.999998251983
1.00000026813
0.999968795525
0.999973680855
0.92694714606
0.928776997592
0.9999958459
0.999988439298
0.99999116471
0.933357425638
0.936334048263
0.935014230523
0.936257637259
1.00000016922
0.999995163985
0.999999551737
0.936702842064
0.940723551917
0.937261476386
0.938949424278
1.00000527936
1.00000359715
1.0000059486
0.941618354283
0.942503978803
0.939804565563
0.940969320327
1.00000750061
1.00000670616
1.00000471119
0.941183152983
0.939639312947
0.940323809953
0.939787587487
1.00000676461
1.00000533997
1.00000229273
0.939434595999
0.939331186869
0.939144436358
0.940246125184
1.00001544041
1.00000257958
1.00000692367
0.939220189343
0.940724850847
0.940271173043
0.942808128418
1.00000909037
1.00001209262
1.00001018056
0.940743761276
0.936861637382
0.94292119151
0.932986457307
1.00000250961
1.00000875293
1.0000084235
0.931922577008
0.897942583394
0.928304395223
0.90297677367
0.999992872849
0.99999446326
0.974801921618
0.936252890046
0.967464801244
0.940302720627
0.999993061079
0.999993683277
0.999995239775
0.942990695609
0.930061922807
0.945563699447
0.934787016817
0.999998337648
0.999999344332
1.00000161276
0.936048098955
0.936282121593
0.93976780209
0.938179859612
1.00000278814
1.00000264721
1.0000019363
0.937720708708
0.939053334196
0.941062895163
0.94009959859
1.00000734346
1.00000303574
1.00000238001
0.939912306327
0.940765423206
0.941800406716
0.941403882676
1.00000768143
1.00000385725
1.00000284695
0.940277703061
0.939967531965
0.941818275384
0.941320052204
1.00000697495
1.00000418843
1.00000259362
0.939410398387
0.940434626565
0.941424709548
0.942332860738
1.00000674754
1.000004007
1.00000242857
0.940489971279
0.943258570611
0.942730147396
0.944843973437
1.00001149858
1.00000479665
1.00000336295
0.943463726044
0.932436156092
0.945010596826
0.935481611275
1.00000992179
1.00000418157
1.00000247945
0.927786663793
0.904394077368
0.930293144749
0.905893324991
1.00000050992
1.00000205649
1.00000364436
0.964983743042
0.940685187779
0.957235116316
0.942154893661
1.00000220012
1.00000349168
1.00000487039
0.945956699509
0.936023513364
0.946383630569
0.939431413882
1.00000205053
1.00000463739
1.00000324472
0.940744225537
0.939353809804
0.942933299863
0.943414371056
1.00000287639
1.00000284765
1.00000220263
0.942148862238
0.941640383242
0.944882570844
0.945401552862
1.00000453967
1.00000319867
1.00000328387
0.943015317709
0.942123716718
0.946356082996
0.94531365195
1.00000519126
1.00000460006
1.00000407434
0.942480061324
0.941676162809
0.945767021029
0.94427151141
1.00000504247
1.00000467498
1.00000368169
0.941811550818
0.942585786561
0.944472561138
0.944522416617
1.00000605363
1.00000459871
1.00000384934
0.942882944354
0.94473214564
0.944551084081
0.94549365423
1.00000662584
1.00000613075
1.00000453604
0.944927852044
0.937386671199
0.945503500394
0.940940180671
1.00000391123
1.00000510427
1.00000338313
0.93224260021
0.906053813634
0.936726841087
0.908700929774
0.955950398335
0.942822796324
1.0000014038
1.0000028067
0.946555260255
0.940733870476
0.94578905879
1.00000111357
1.00000153296
1.00000168726
0.943099466497
0.944236941525
0.945528138576
0.943656280063
1.00000222181
1.00000260547
1.00000238836
0.945229138149
0.945509186686
0.943165758053
0.943746512824
1.00000367309
1.00000310023
1.0000027761
0.946407667862
0.945596047308
0.944728862346
0.945969869293
1.00000455932
1.00000386239
1.00000368693
0.946003993234
0.944566049728
0.946867715252
0.946295037936
1.00000511703
1.00000436514
1.00000404686
0.944722417378
0.944747052695
0.946393295504
0.94645345945
1.00000661493
1.00000488186
1.00000454059
0.94474364514
0.945609330272
0.946527188535
0.947370743415
1.00000735616
1.00000654756
1.00000516475
0.945617258776
0.941487138927
0.947332352737
0.940971173549
1.0000047671
1.00000511551
1.00000322242
0.937463253712
0.909172365524
0.936323894585
0.908710985109
1.00000180652
1.00000204354
0.94298241983
0.943773447487
0.946726334657
1.00000300342
1.00000381643
1.00000390411
0.945014111278
0.946239295302
0.947853018904
0.948119546372
1.00000374931
1.00000411576
1.00000420243
0.947118666883
0.946794100284
0.948570732989
0.948903535906
1.00000429295
1.0000037495
1.00000207381
0.946832649968
0.946937529104
0.949181165385
0.949093061995
1.00000604265
1.00000270842
1.00000246811
0.947024795139
0.947858748667
0.948985792773
0.948823828948
1.00000631892
1.00000471167
1.0000031867
0.947838323192
0.939614062261
0.948570200568
0.933993542846
1.00000339935
1.00000318466
1.00000130341
0.934825371744
0.909098885799
0.929367805277
0.907865710093
1.00000439409
0.949136042009
1.00000493588
0.948966971411
0.948515687248
1.00000330289
0.948109812839
0.932700400255
1.00000069261
0.928146559285
0.907560469878
1.65569934207e-05
7.07239731678e-06
1.22284750562e-05
7.52385398199e-07
0.0184227001157
0.0182598942901
1.65435584902e-06
2.5990154099e-06
8.6075573987e-07
2.00875745549e-06
0.0192878140891
0.0190113139622
0.0194145718521
4.98656888021e-06
2.80113180195e-06
8.66517571557e-06
1.42359479943e-05
0.0197068455667
0.01979980473
0.0199976915876
2.34041054726e-07
2.8665661144e-07
9.62125503325e-06
5.34053305027e-06
0.0200695478447
0.0199322280932
0.0203491616252
1.0081394875e-06
4.96622702913e-06
6.58962113692e-06
4.81414718363e-06
0.0225231281177
0.0211867488188
0.0224478410539
1.18164072907e-05
1.68382382521e-05
4.95442849789e-06
2.26532840571e-06
0.025606390924
0.0239197319059
0.0255558053325
1.85868994686e-05
2.24151085576e-05
3.89640896353e-06
7.89896486951e-06
0.0292264396305
0.0272661541906
0.0290460703606
2.57068795634e-05
5.02566524967e-05
3.61216618413e-05
8.36218967959e-05
0.0332936154639
0.0307788254544
0.0334963061633
0.00011018830583
0.000271177255016
0.000177562040014
0.000315267662136
0.0349534939594
0.0347213420066
0.0345695276615
0.000415674018231
0.000522069404588
0.000420389266819
0.000503259342642
0.0155543491775
0.0140039556296
0.0158948324173
9.06878492855e-06
1.68351899435e-06
1.61274214733e-05
9.12550168384e-06
0.0181946172064
0.0171801195125
0.0181929770299
1.22183516179e-06
1.88609868328e-06
2.84619212988e-06
4.07745231783e-07
0.0191109739618
0.018386246658
0.0189172827921
4.97675945003e-06
1.34832763522e-05
1.53641850634e-06
7.94186867022e-07
0.0196885205388
0.0188225015265
0.0191079171926
1.38950502205e-05
1.05789615005e-05
8.4050357637e-06
9.9453839583e-06
0.0202631372673
0.0193067016194
0.0200019662683
8.31258386555e-06
7.67471415339e-06
1.64398694511e-05
8.75607513658e-06
0.022283349097
0.0208099930822
0.0221164515477
2.29055940543e-06
2.01317532147e-06
7.97620586109e-06
1.07407793594e-06
0.02539158987
0.0234179389206
0.0250276217329
2.36191069929e-07
6.6526362494e-06
3.18358282968e-06
7.72760892884e-06
0.0286981744811
0.0265226087328
0.0281158213844
2.83896105332e-05
9.09785950258e-05
2.77906246768e-05
6.60623111922e-05
0.0333523659017
0.02987765514
0.0328577653868
0.00019746339578
0.000326746325932
0.000168268128188
0.000310112434528
0.0342972087954
0.0342048464596
0.0339171373102
0.000414443828298
0.000479818806136
0.000401068825689
0.00046294632857
0.0161946213328
0.0151398382667
0.0167083992173
3.60619359692e-05
2.15782071285e-05
4.7954910294e-05
2.13652852051e-05
0.0179012569464
0.017193117552
0.0178334839476
3.96276615661e-06
3.7422265067e-07
4.04057014411e-06
4.19399235203e-07
0.0182021551379
0.017569929666
0.0175315335368
4.23418160135e-08
1.08097823759e-07
3.1130546319e-07
4.61865263567e-08
0.0182369940826
0.0173097734376
0.0174588211581
2.48209303816e-08
4.87235473168e-06
2.47791727974e-07
2.44414133089e-06
0.0192751474803
0.017804756265
0.0185717417794
7.74505534914e-06
1.54413129113e-05
5.6399542706e-06
4.40678422355e-06
0.0216320197437
0.0196927106915
0.0211037923763
1.11724338846e-05
1.44312266442e-05
8.31084896194e-06
8.09004805304e-06
0.0246112398944
0.0225365595196
0.0241178501737
8.32071867766e-06
1.47267798648e-05
9.85379617705e-06
7.02291429295e-06
0.0276333966871
0.0256613308152
0.0270874476006
1.85801633449e-05
5.24837901845e-05
1.63604027354e-05
3.62829715706e-05
0.0319546404202
0.0286259121052
0.0310488742857
0.000124322275541
0.000271564399745
0.000107664747223
0.000235018834474
0.0336316204389
0.0329432284725
0.0332287388961
0.000364838252808
0.000429094612227
0.000334973750214
0.000410402063002
0.0167755975551
0.0157320140505
5.50467053726e-07
3.67974341264e-07
5.79131969016e-06
0.0166981944066
0.01614822914
0.0165673023762
5.83353282946e-08
2.83969182386e-07
7.3565237505e-06
1.49365095624e-05
0.0171969832641
0.0170155647706
0.0174671513039
2.45242761436e-06
6.50502248974e-06
2.09292091494e-05
1.60857884451e-05
0.0182753190795
0.0179395352217
0.0183665703648
5.66275200361e-06
4.06439158732e-06
8.45916807718e-06
8.36201237847e-07
0.0207783515884
0.0192501818364
0.0204847726938
2.88925694537e-06
1.03729724005e-05
1.22232955857e-06
2.85842060725e-06
0.0237688157131
0.0218401037753
0.0233270668996
5.21779335174e-06
6.9788814814e-06
5.98465737165e-06
3.37655255561e-06
0.0267112449397
0.0248393241129
0.0263044797615
3.0084180029e-06
2.7634812216e-05
1.17492700134e-05
2.87868847989e-05
0.0304830633283
0.027857456638
0.0304317969749
8.44976789377e-05
0.000218993473408
0.000100704950356
0.000224732841211
0.0329259235539
0.032371239932
0.0326961793972
0.000317893988298
0.000397711579071
0.00031933450931
0.000392643460745
0.0175929014407
0.0171558359295
2.63954277097e-05
1.56657553328e-05
2.20362463771e-05
2.52863413415e-06
0.0184940132976
0.0176485652425
0.0182242532028
9.33066324358e-07
3.42539261477e-07
1.45347457528e-08
4.58740251435e-08
0.0202057013744
0.0188929535546
0.0197657062641
7.23108763606e-08
3.18162730351e-07
2.18249458914e-07
3.9866830854e-08
0.0228863608178
0.0208269401017
0.0222424667951
1.33776643873e-07
9.67168473669e-06
1.23635588325e-06
2.01442479073e-05
0.026082961712
0.0239733127988
0.0258608777109
2.0076878119e-05
6.07090195208e-05
5.01634247966e-05
8.94669230587e-05
0.0308971338715
0.0282704703989
0.031435283232
0.000132462171719
0.000256049007945
0.000180627296295
0.00028650693076
0.0326148432708
0.0329084773406
0.0327885395375
0.000333479390175
0.000398265319682
0.000351278181357
0.000406479730806
0.0219457083468
5.70294580794e-05
0.0259840068549
6.68903530489e-05
0.000101681846863
6.32465112944e-05
6.0544522385e-05
0.0314991105075
0.000184543526257
0.000297487085243
0.000132147975283
0.000271773123467
0.0329590820069
0.000376663651687
0.000441626256917
0.000373650283833
0.000454734035861
0.999930048244
0.999904869098
0.922345430484
0.931611021198
0.999959108167
0.932800692647
0.999937445224
0.999924238704
0.99989976591
0.932691127796
0.925946508264
0.99995757905
0.999896980683
0.933835182165
0.999905966097
0.999886814992
0.933764646041
0.930182652451
0.999944522386
0.932776969263
0.999893463036
0.999849257942
0.999901070807
0.934481893958
0.934529934637
0.999787065637
0.934782744388
0.999900843828
0.999887256804
0.999925687229
0.930660931876
0.934628515274
0.999929176531
0.999929424577
0.933254279031
0.999868951761
0.999928007479
0.935265034398
0.93441906387
0.999854110997
0.999929473141
0.935661530758
0.999774789846
0.99990322852
0.936709065756
0.934996975929
0.999768490376
0.937014124954
0.999905647062
0.999798020947
0.999927396469
0.93795724323
0.939372534603
0.999824499791
0.93849054489
0.999911464902
0.999849242185
0.999925964557
0.935435702608
0.936854384748
0.999845420082
0.99992121279
0.937012884171
0.999862222536
0.99993087766
0.938582072867
0.937187237951
0.999879464377
0.999921602598
0.938124321248
0.9999078203
0.99994426473
0.94179749514
0.940915732237
0.999866122985
0.941668688427
0.999955010229
0.999939980374
0.999969673885
0.942381214812
0.940161564456
0.999974290404
0.941140798589
0.999956496713
0.999921681732
0.999939715756
0.939833786449
0.939952982511
0.999893157209
0.999948761662
0.940898361697
0.999953538309
0.999942722744
0.940070685585
0.940563065953
0.999969026742
0.999950088449
0.940623653625
0.999953362947
0.999971221008
0.938718408993
0.940308936566
0.999971721459
0.940481329717
0.999974933678
0.999938068967
0.999985436501
0.938762360986
0.938122578534
0.999939249569
0.939603168816
0.999981847594
0.999978308594
0.999942661076
0.940318114322
0.939350976064
0.999971268662
0.999947772345
0.940482475091
0.999985974546
0.999957894664
0.938190094946
0.939563201338
0.999985103525
0.999957938728
0.939495523167
0.9999398427
0.999982365153
0.938495838574
0.938340645721
0.999942674142
0.939042373557
0.999973882248
0.999936103604
0.999969975889
0.938708459585
0.938637910715
0.999938113109
0.938845747877
0.999968990973
0.999945060861
0.999958578614
0.938539710333
0.938502445132
0.999969463762
0.999958961164
0.939189779834
0.999940206639
0.999961881025
0.938736373329
0.939165750368
0.999943430449
0.999962540095
0.938935395128
0.999946388791
0.999969486975
0.939130605318
0.939336054883
0.999943235606
0.940229310033
0.999968734842
0.999954896735
0.999953179643
0.939829034996
0.94014794488
0.99996257914
0.94013807367
0.99996744048
0.99994185661
0.999959304423
0.939586408796
0.940317441553
0.999942942366
0.999956335042
0.940704302446
0.999943337779
0.999963173642
0.940683677617
0.941454951238
0.999955463472
0.999958792308
0.940679497097
0.999982885917
0.99994743198
0.941053039026
0.941198351278
0.999976700924
0.942269562492
0.999948133045
0.999973505484
0.999913622859
0.939378291862
0.93560090733
0.999936408554
0.940434927789
0.999940258347
0.999959574446
0.999978243656
0.941694259772
0.942310379089
0.999966904568
0.999967831903
0.942614587109
0.99993891668
0.999919104233
0.934468493179
0.938166338345
0.999893286705
0.999949476552
0.939915068274
0.999807851275
0.99987612229
0.923720498203
0.927662635079
0.999885108825
0.920778349058
0.999809942414
0.999660001509
0.999705291196
0.915129019923
0.902354155145
0.915871833246
0.999705426293
0.99965844988
0.999782231684
0.999888916582
0.926887495439
0.922902935104
0.99984781343
0.999843869049
0.920286844585
0.999667978882
0.999746531134
0.904959787949
0.916405210878
0.999716854501
0.916318168814
0.999712053888
0.999956856119
0.999991308156
0.960022822907
0.952625343348
0.999983121451
0.955070458491
0.999948101166
0.999981767153
0.999925291187
0.936414944082
0.94815888078
0.999954481291
0.999989014119
0.957655737916
0.999944768041
0.999976444124
0.952203703014
0.957576637249
0.999964317195
0.953941930323
0.999937961256
0.999981845705
0.999911872086
0.949262949347
0.940304149268
0.99998724923
0.999927577191
0.957302604426
0.999870684602
0.999938156998
0.938718372307
0.92971679184
0.999933546016
0.999909344495
0.930252590659
0.999930776961
0.999876000933
0.927989484801
0.936611300448
0.999865783901
0.999981039334
0.937648165927
0.999882049656
0.999933058145
0.932369823763
0.942962291752
0.999915147901
0.999937636718
0.932328396384
0.999929977728
0.999925288625
0.938524893741
0.933759006915
0.999933928089
0.999919634822
0.939331223529
0.999932258401
0.999908259208
0.935492190316
0.93287775056
0.999910045435
0.99995825608
0.934940469335
0.999920870247
0.999896878484
0.934703689862
0.937350472688
0.999897083412
0.999911643417
0.937966684811
0.999891665368
0.999957293135
0.934357293496
0.939505286398
0.999907173208
0.999976032947
0.935924825167
0.999902377953
0.999965748177
0.938845723117
0.937232955902
0.99991460464
0.999971181678
0.939242750741
0.999913122871
0.999907190113
0.937401966788
0.936613747533
0.999906917686
0.999909920497
0.93790426221
0.999916649234
0.99990016316
0.937580204642
0.939359739932
0.999899916708
0.999917210233
0.939618526161
0.999913370763
0.999966544505
0.937809909429
0.941563932326
0.999914003153
0.999968785815
0.938683929685
0.999919328887
0.999957843216
0.940500083741
0.94008992843
0.999921992117
0.999963118839
0.940667253342
0.999933583323
0.999909464464
0.939950497919
0.939319342582
0.999917699921
0.999922021624
0.940311183813
0.999942096568
0.999935176569
0.940375946412
0.940227301992
0.999921782991
0.999945890376
0.940730557882
0.999919584122
0.999960101666
0.939893247351
0.941992991721
0.999919579731
0.999963370252
0.940489568835
0.999927831188
0.999962481043
0.940554403495
0.941015842514
0.999935520187
0.999963719755
0.941116511635
0.999953408764
0.99996091132
0.93946129016
0.940286710842
0.999968117171
0.999953769686
0.940686711948
0.999951137867
0.999959547619
0.939686934072
0.939306302131
0.999964727363
0.999952210122
0.94025563926
0.999934004501
0.999963695577
0.940359050114
0.9409333157
0.999934063935
0.999964333564
0.940752805289
0.999937460952
0.999961481128
0.939703720683
0.940621542099
0.999940749967
0.999963774985
0.940586614597
0.999954678036
0.999958853684
0.938836923558
0.939626987084
0.999955759669
0.999956789443
0.940387182662
0.999947361102
0.999940938088
0.939443127852
0.939876415795
0.999948858812
0.999945497843
0.940176223367
0.99993723351
0.999961604361
0.939884314481
0.940913304385
0.99993794268
0.999960491051
0.940742050319
0.99993818741
0.999957720789
0.94060832198
0.941183106605
0.99994010907
0.99995943938
0.940742141387
0.999948494189
0.999938171432
0.940559824083
0.940659564119
0.999935360792
0.999948794477
0.942358665545
0.999946415348
0.9999372729
0.941748215448
0.942938209136
0.999935301107
0.999947415231
0.942742185269
0.999938615754