/*--------------------------------*- C++ -*----------------------------------*\
| =========                 |                                                 |
| \\      /  F ield         | OpenFOAM: The Open Source CFD Toolbox           |
|  \\    /   O peration     | Version:  v1906                                 |
|   \\  /    A nd           | Web:      www.OpenFOAM.com                      |
|    \\/     M anipulation  |                                                 |
\*---------------------------------------------------------------------------*/
FoamFile
{
    version     2.0;
    format      ascii;
    class       surfaceScalarField;
    location    "2";
    object      alphaPhi0.water;
}
// * * * * * * * * * * * * * * * * * * * * * * * * * * * * * * * * * * * * * //

dimensions      [0 3 -1 0 0 0 0];
oriented        oriented;


internalField   nonuniform List<scalar> 
92311
(
0.20130634825
7.13095434379e-06
0.000829026729654
-0.20161516075
-0.000527303822821
4.6073194736e-05
0.200995490796
0.000884076122666
-0.000619200774878
0.201344895261
-3.36560630873e-05
0.000875218165229
-0.20166630959
-0.000512863930483
9.64079407774e-05
0.200997111155
0.000923306446824
-0.000625838025063
0.201449053053
-6.79325585169e-05
-4.67676106419e-05
0.000947410570846
-0.201800073573
-0.000555075203325
1.48386650244e-05
2.49082568719e-05
-4.86979101497e-06
1.4301473803e-05
7.88557045138e-05
0.20105255888
0.000996123260379
-0.000658008174868
6.63259676927e-05
0.0504798503259
-1.9770704683e-05
-4.01283902905e-06
2.21914537678e-06
-1.26239673324e-05
0.000175303130794
-0.0505266567968
-0.000162368245767
-0.0504130003594
0.0503550227313
9.93792494218e-06
6.61875993802e-06
1.21767887843e-05
1.46150473533e-05
0.0002293197744
-0.000219666955273
3.74601350467e-06
0.000619155539552
-1.21239439087e-05
-9.02800855626e-05
5.11037615682e-07
-5.58933273879e-05
-0.000578480573769
-7.82667832578e-08
6.96224299683e-05
0.000750284471431
0.000129730686293
-2.56157408139e-10
-0.000706161568399
-1.61068052077e-05
-5.15182214637e-05
-4.19793679359e-05
-2.53382028813e-05
-9.98409503649e-05
-4.01854298764e-10
-1.04082685141e-10
2.28075900743e-10
8.17408382461e-11
4.67369160549e-12
1.0729520158e-11
-2.46866488926e-10
1.74411423119e-11
-4.92444525122e-06
3.13545616365e-06
4.19755716679e-06
5.84090982838e-06
0.000208879085154
-0.000197235769138
2.2788709686e-05
0.0119095708124
2.88766711625e-05
4.69287282775e-06
-0.0118596454714
0.0118721094799
3.38735503988e-06
-1.57369962443e-05
-0.0118626996496
-3.12275591334e-07
2.79249071965e-06
-0.000231305305582
2.14859138921e-05
0.0502881905415
1.49848523135e-05
1.48529846666e-05
1.6335254881e-05
0.000244649671696
2.86834459711e-05
0.0502887924692
2.13705721104e-05
2.33678734807e-05
2.39421223184e-05
-0.05035130921
-0.000187497468515
8.27924083253e-06
-1.63606618194e-05
0.0118840701379
6.34683442446e-06
2.72562595342e-06
-6.58682635347e-05
0.012571761548
5.99786434225e-05
3.84583312595e-05
-0.0125828691477
0.0125717309786
-5.99304092306e-05
3.28021117444e-05
-0.0125817818969
-9.02206171852e-05
0.201870090986
0.000968620742378
-0.000511041029746
-0.20223734961
0.200727709472
6.71008201239e-05
0.00081520397582
-0.000614548687678
3.97217885913e-05
0.20053476874
0.000744446084754
-0.000591350910652
-8.33932651802e-05
0.201926505465
0.00086274927198
-0.000542679799478
-0.202253155256
0.200696286865
0.000146723492513
0.00084799707956
-0.000626946056855
0.000106192998951
0.200457255257
0.000767828434253
-0.000595555553485
-0.000139254627036
-0.000137004094377
2.69900644695e-05
0.00116526391973
0.202066030208
-0.000612422221723
-0.202470405051
1.7509645426e-05
3.52708035309e-05
4.79010480412e-05
9.62825011091e-05
9.07077997608e-05
0.200658939245
0.00091908693058
-0.000649263039104
0.0507040674112
-3.15155493232e-05
-6.19550546748e-05
-6.05311430026e-05
-3.30157619773e-05
0.0002180528209
-0.0507406817615
-0.00013381383341
0.0502248220194
-0.000233448856052
2.01092326283e-05
2.1768392777e-05
1.4857433064e-05
2.73679836564e-05
0.000247895065611
0.000126169298841
-5.52257925165e-10
0.000789338530819
-4.70806385212e-05
-4.43006241001e-05
-6.27161230221e-05
-1.44418326258e-05
-0.000105923000075
-7.97608893421e-09
-1.43009141754e-08
-3.29926986133e-08
3.13055806305e-09
2.03736576557e-09
-2.99534130918e-10
-1.45786355693e-10
-8.45375821388e-09
-2.00597898699e-09
2.24742120728e-09
-2.75049016828e-08
3.14435409253e-09
-5.51707154247e-09
2.31940145701e-10
-7.1375755499e-09
-0.000207760309126
-4.68345123407e-05
-2.83573794039e-05
-3.28698408031e-05
-4.67647962281e-05
0.0506217313412
0.000307799557159
1.23046478625e-05
8.85840630331e-06
-1.76846178259e-05
-1.08846202973e-05
0.0505762328997
-0.000122899459843
-0.0506267657119
-8.69754889613e-06
9.11577922652e-05
0.0119096578939
4.90929233096e-05
7.8182219161e-07
-0.0118382802981
-1.95858327068e-06
1.53554616119e-05
-0.011822279965
-1.55379816115e-05
1.33725927616e-05
0.0118112205853
2.2300903186e-05
0.0126526999233
2.36316582451e-05
-1.75612643851e-05
-0.0126688141126
-0.000223643718441
1.98328939156e-05
1.94699583284e-05
2.43504432484e-05
2.78500454401e-05
0.0501598703406
0.000244864713993
0.0502414652466
2.91426975467e-05
2.47213937134e-05
2.14510897294e-05
2.41908323771e-05
-0.00018952302629
2.67734565542e-05
2.29738877555e-05
2.5612044892e-05
3.26454951201e-05
0.0501814519316
-0.000181162850081
-6.6590131503e-05
6.36905238257e-05
3.16353978044e-05
0.0125631205035
2.04251955381e-05
-2.21307422626e-05
-0.0118381558539
6.82666590075e-06
0.0118516684557
-5.75769922297e-06
-6.18749437662e-05
3.34437134346e-05
0.0125627105652
-0.0125649267008
3.08205068502e-05
0.0125530493518
4.97776898562e-05
-4.2240780263e-05
0.000661488239566
-6.83358169753e-05
-2.97859782058e-05
1.65017530657e-06
-6.92458165545e-05
0.000100294657787
-1.88515855843e-08
2.33554594824e-07
-3.97441748889e-05
-5.57610585632e-06
-5.69897006925e-05
-2.25412139141e-06
0.000738413685056
0.000102897382768
-0.000708954068695
-1.00831000977e-10
1.22267022218e-08
-2.90026479327e-11
5.1257504702e-09
-2.63721653328e-11
1.54652613605e-10
-4.45635424281e-11
-8.8247465637e-11
-4.72481690076e-05
-6.0936043732e-05
-1.16126997328e-05
-8.39400543894e-05
0.000118492745126
-6.15941470189e-12
-6.4655653869e-10
1.60634015271e-11
-2.98580707316e-05
0.0126398483951
3.17216744517e-05
-0.0126383480677
-0.0126248868198
1.03454503337e-05
4.31401299123e-05
0.0126189206894
-5.17080562865e-05
-7.75728946002e-06
-5.34581872764e-06
0.0119205469253
4.37374007027e-06
-3.32999820652e-05
0.0118590715027
-0.0119587159524
-2.78136747235e-06
-0.0126393587187
-4.67786012766e-05
0.0118689508084
-4.71144549163e-06
0.0126287128606
3.60840778112e-05
0.0126170632145
-2.07963476242e-06
5.54266340836e-05
-5.63749088567e-05
-5.21143398199e-05
-0.0126149814801
0.0126082231063
4.62342018459e-05
-2.47525817122e-05
-3.19504602559e-05
3.0739235367e-06
-2.16964587367e-05
-0.011906313255
0.0119008432392
-5.48497785958e-06
0.0126068058595
-5.93891683454e-05
-4.70864208182e-06
4.2730248745e-05
-0.0125945974189
1.7799197944e-05
6.18428397912e-05
0.0125891586647
-6.43299523994e-05
-5.22697559646e-05
0.0126014069361
4.9399172868e-05
-9.69370989904e-06
-3.57263642278e-05
0.0118693156851
2.66798781404e-06
-3.40730233543e-05
0.0118658459457
-7.72809373434e-06
-6.20479131373e-05
0.0118813328815
-7.81618074313e-06
0.0125892927203
5.27653100083e-05
2.38726479463e-05
-0.0125810935964
0.0125753971395
5.67211170813e-05
3.68393338995e-06
-0.0118608622738
0.0118758561475
8.20673632303e-07
-0.011883199875
-6.11452579452e-06
0.0118679577648
2.30112089928e-05
6.31821256604e-05
-6.50763448484e-05
-8.52646740563e-06
-3.27901210792e-05
2.26529503245e-06
-7.42282750274e-06
5.46595491055e-05
1.02375036906e-05
-0.0125763513432
0.0125717216543
-4.4267149999e-05
-9.76990285675e-06
-0.0118884617503
0.0118792544131
-0.0118604860863
0.011868305548
-4.49169301989e-06
-5.17497126638e-05
1.55831229238e-05
-0.0125872785102
-2.94518865683e-05
-6.79950755776e-06
-0.0118964349223
-3.77633860843e-06
-0.0125891596639
-4.45887665285e-05
-0.0118710252222
6.74269829918e-08
-5.83828487369e-05
-9.36822581146e-05
1.90688315492e-06
8.4331931923e-07
6.88727355498e-06
0.000569777466871
-0.000527881755464
3.2703474123e-05
-3.07274006199e-09
2.18219916161e-07
4.95732824212e-08
-2.02791243124e-07
0.000554780302348
6.22485364359e-07
1.28851073939e-06
-0.000127989487906
2.70922867552e-06
-0.000117231219193
4.55633546435e-05
-0.00050792980702
4.87018916773e-07
-9.93944098218e-05
9.83944650258e-07
7.08744021103e-06
0.000598355002288
-0.000116853961643
8.16951413028e-08
-2.42879270547e-08
-3.48783078527e-08
3.38669446911e-08
-7.97503833093e-09
1.05377086167e-07
7.1466239244e-07
0.000738852358824
-4.85462685321e-05
4.82898501001e-07
-2.66821515571e-05
-7.37164131116e-06
8.81510045901e-05
-7.87238902719e-10
8.35587234365e-08
2.57326696144e-08
1.14802487113e-09
-6.60020916025e-10
1.19745637892e-06
-0.000123646630645
-5.33043569548e-05
-6.16757473515e-06
-4.88286834601e-05
-7.01181281109e-06
0.000768365652413
7.22296572582e-05
-3.2790251193e-08
5.93009487838e-07
3.59018411613e-08
1.50844657217e-07
-4.32231262896e-05
-6.11894067175e-05
-3.48008612657e-05
0.000822048087428
-0.000127547029334
4.71789335065e-08
-1.23724172855e-10
3.98747649981e-05
-0.0126740271456
-2.65449550316e-05
0.0126716317304
-4.26170111973e-05
0.0126994897688
-2.29782370275e-05
3.96200265154e-05
-0.0126861260688
5.86073710697e-05
-1.22012209007e-05
0.0119633462198
3.63569670881e-06
5.72062835932e-07
0.0118308019457
-0.0120150571526
-1.13552536272e-05
0.0126924912067
4.49645310029e-05
-0.0126929443744
-3.66488483244e-05
0.0118241688241
-1.36022385342e-05
6.74615309153e-05
0.0126772565384
-6.65119968388e-05
-5.31421786947e-05
-0.0126708320393
-6.32061846265e-05
6.20003445106e-05
0.0126586869894
1.09631415598e-06
-5.89725993064e-05
9.94257126035e-06
4.01338911535e-05
-0.0118815468883
-1.99521615764e-05
0.0119329171198
5.68410314956e-05
-5.91277581253e-05
0.0126666059061
-1.83872940825e-05
0.0118504237913
-3.14725553077e-05
1.07028363843e-06
-0.0119818680857
-2.07002167664e-06
1.49185617247e-05
0.0118463525402
-1.11240792479e-06
3.64149614588e-05
0.0126461865649
-2.34723878114e-05
0.0126675474689
-5.29324893314e-05
-0.0126613678059
2.59575906398e-05
-0.0118941542185
0.0119394508524
0.0126595781839
-0.0118365727076
3.66587912325e-05
0.0125657356162
5.84439274734e-05
-5.51766161359e-07
0.0118625846507
-8.105877806e-07
0.0118579398624
-7.78240280297e-06
6.93263687944e-05
1.52273964448e-05
0.0125596159635
-6.61764015429e-05
-4.85168395425e-05
-8.16191080296e-06
0.0118432129503
-2.97283682976e-06
0.0125537552401
5.99753263779e-05
0.0118734101354
-7.35351321517e-06
6.56428001412e-05
0.0125540555216
2.39481916128e-05
-6.42620950663e-05
-0.0125470647962
-5.73710503486e-05
0.0125409080349
6.08800673054e-05
-3.55239858191e-05
-1.93778218633e-06
-4.62496999712e-06
-4.34693584522e-05
-0.0118654537821
-7.46183930477e-06
0.0118362182394
6.10657548462e-05
-6.02745605028e-05
0.012541275617
-7.74221566195e-06
-0.0125708123579
2.06327718129e-05
5.29420535056e-05
-4.29705016972e-05
3.69902746882e-06
-4.31809558582e-05
-1.53353869365e-05
0.0118619247186
0.0118883039481
-1.64212118174e-06
-2.91468593745e-07
0.0118800260239
-2.81494689303e-06
1.29968675614e-05
0.0125607157704
0.0118735569342
0.0118324704989
-2.84367802992e-06
-4.12615674461e-06
-1.10817116553e-05
1.22367409675e-05
0.0118297916057
-5.1116291799e-06
5.55050969265e-05
0.0125489987264
-3.97338888525e-05
0.0125568416862
1.49726778654e-05
-3.89865647227e-05
-0.0118719995823
0.0118384082787
0.0125456537622
3.52081325833e-05
8.27252008783e-05
9.4428907436e-05
0.000828848762642
0.200276386731
5.0479515503e-05
-0.000603341686966
-0.000203567170036
1.6386162853e-05
2.17987707792e-05
2.72447062972e-05
2.37943278583e-05
0.000233324674886
0.0500760416607
-4.50658726856e-05
0.000106222347819
1.20270362989e-06
-5.86903042801e-05
-5.23719821377e-05
-2.32812396937e-05
-0.000138847483547
0.000838682753026
-2.74664878959e-08
-9.23194498209e-08
-1.25009117222e-07
4.00954978223e-09
5.31201212798e-09
-7.86830772723e-08
-4.71061591794e-09
1.54807609165e-05
1.83124321817e-06
1.76330864481e-05
1.04339339446e-05
-7.09313908128e-05
0.000256362782497
0.0505205070135
-4.20911414111e-06
2.16961412589e-05
4.65266034923e-05
0.011896034955
0.0501074634244
2.62711723925e-05
2.26494018208e-05
3.21805827573e-05
3.28338900979e-05
-0.000160930633981
0.0500379337568
2.70816554675e-05
3.10336070461e-05
3.19178239541e-05
3.42979365188e-05
0.000184439495124
-0.000144946542706
-3.28533149121e-05
0.0118378685851
1.77109063901e-06
-4.85232389904e-06
-1.27820909048e-08
-1.00659676761e-05
1.75703285808e-05
0.0118361614405
-4.58512894212e-06
0.0117765658073
3.0957627742e-05
-3.42722725587e-05
1.36227319662e-05
-0.0117787046305
-8.36396206714e-06
0.049951703987
1.80726724036e-05
2.48448180706e-05
1.73169155075e-05
2.16102981003e-05
-2.88097294727e-05
0.000164033344529
-0.000130966142116
4.66666556238e-06
3.30073652066e-06
-6.91214391804e-06
6.56780227529e-06
2.29587960992e-05
0.000135622721901
0.0499057713102
-0.000120411231308
4.76925122685e-05
-3.8573844179e-05
9.93812831202e-06
0.0117611114735
-8.92636280533e-06
5.18005167834e-05
-1.96023013079e-05
4.51576605743e-06
-0.0117230594932
0.0116927704911
-1.014382708e-05
-8.59632672006e-05
-8.69288845166e-07
6.81947441962e-07
-6.3670806678e-05
0.000611405694708
-3.15135367415e-08
0.000780222013523
1.61942184173e-06
-6.06633914913e-05
-4.88794393489e-05
-2.13369583983e-05
5.43982159889e-05
2.22204802974e-06
0.000789918679475
-4.66981169496e-05
-5.37236384961e-05
-2.75530196268e-05
-9.37190263523e-05
2.97815020715e-05
-7.73679209537e-08
8.09345801289e-10
3.19586995269e-07
1.00295772395e-06
-8.25932208385e-08
1.91417666597e-07
9.85424946676e-07
-1.11590462927e-07
0.000778845022706
-3.47606144989e-05
-4.06023777694e-05
-3.88081083482e-05
-5.77511917846e-05
2.37343414333e-06
9.82135226137e-06
-1.94745190591e-05
-3.46610897762e-05
-4.23591842512e-05
-8.13996466436e-06
2.00516659674e-06
0.000753910246928
-3.11044946495e-06
-0.0126408660322
8.25278952075e-06
-5.35156752445e-05
6.99548122381e-05
0.0126315948889
5.61029438213e-05
0.0126454588099
-2.60369172394e-05
0.0118330290814
1.95393980138e-05
1.24011185252e-05
-2.32924498505e-06
0.0119166321444
6.59191064585e-05
1.79580584231e-05
0.0118324759558
0.0126363742794
5.82177443936e-05
-0.0125292868632
1.93362209701e-05
-5.20862533576e-05
0.0125201982541
0.0125286777141
-5.7870369738e-05
5.91918489061e-05
-4.38450389237e-05
-6.00311581593e-06
-3.36328377627e-06
0.0118169638759
-3.55731127737e-05
0.0118203029556
-7.40715560974e-06
5.68109026315e-05
0.0125134741415
-5.76517580694e-05
-8.51270116888e-06
0.0118269544253
-0.0125332030812
2.32937572518e-05
-4.00307415068e-05
0.0125240942276
5.41713600114e-05
0.012544568192
-3.71056639916e-05
-4.09555355046e-05
0.0118097297345
3.84936425114e-06
-4.03139249639e-05
0.0118026790905
-5.54588828851e-06
0.011812470446
0.0125302451158
-3.30719038612e-05
0.0125126107667
2.62015389906e-05
-3.58103958575e-05
4.81462825121e-05
3.64977504096e-05
-0.0125161684036
0.0125036853665
-2.7312631005e-05
-3.84423722573e-05
-0.0118040086863
0.0117803970631
1.1526727202e-05
3.73442721446e-06
-4.26149033834e-05
-7.09359114286e-06
0.0124986953877
4.38176339455e-05
9.43081561992e-06
-3.00735992282e-05
-0.012480366294
2.6443707516e-05
-2.83340405694e-05
0.012464115966
3.61908308865e-05
3.09627852664e-05
0.0124846637442
-2.57969690762e-05
-2.6311857582e-05
0.0117646541474
1.14295640631e-05
1.19567168105e-05
-3.32403513133e-05
0.0117431210761
-9.68251913587e-06
4.02492844047e-05
0.0117485533212
1.22932155337e-05
0.0124699680782
-2.53806735204e-05
0.0124455715217
1.89832712453e-05
-2.86023531664e-05
3.27935273697e-05
2.15511738975e-05
-0.0124511620465
0.0124403755912
-2.71645445671e-05
7.87362915844e-06
-0.0117214581215
8.65734706645e-06
0.0116881979193
1.58011660919e-05
-2.29595742785e-05
-9.32794771792e-06
3.02453589193e-05
0.0124378372654
1.18869695888e-05
-2.62840328135e-05
-0.000421104620112
-0.0495669728513
0.0495018896014
0.000511016002687
-1.85427741472e-05
-8.42698199477e-06
-8.2242909992e-06
-1.41817579176e-05
2.43113366499e-05
-0.000515978086979
0.0499539124337
-5.54817797117e-05
-4.7465123423e-05
-4.56500531953e-05
-4.86714438685e-05
0.000166700374547
-0.0498597762623
0.000452420805131
-0.00080431289733
-0.050112619272
0.0503835545777
0.000638859266091
-7.56138995171e-05
-5.30813841082e-05
-4.77330091345e-05
-6.01093579471e-05
0.000131093742332
-0.00047981068784
-6.77811201236e-05
-7.01039955684e-05
-6.1858696197e-05
-6.23188492179e-05
0.000218948411322
0.0504237643165
0.000351740935822
-0.0502525565326
2.10913297231e-07
-9.51718150154e-06
-0.000422732718254
0.000393755050526
2.59963203921e-05
5.30772196552e-09
3.1804861971e-07
3.05702817686e-07
3.41622620334e-07
-6.90879522466e-05
-0.000367832204199
0.000343494051806
3.73919973298e-05
4.28600443833e-07
2.04869035461e-06
2.95330412058e-06
1.18225789849e-06
-2.78040794711e-05
1.52939566827e-06
-2.25094202407e-05
0.000489272789856
2.80245144519e-07
8.481378996e-07
-2.42901258848e-06
1.23235372547e-06
-0.000529196402337
1.59476437154e-05
4.53567286968e-07
-4.73203446487e-05
-0.00046030592812
0.000425872791487
4.34662844693e-05
8.58742111849e-07
1.34349491183e-06
5.03808037323e-07
2.58859696374e-06
3.81397395851e-06
-4.74368449836e-05
1.06081909252e-06
-5.74745222196e-05
3.52659482287e-06
0.00044801568968
6.68905542111e-05
6.22999544873e-07
-0.000488832639353
-2.39313180142e-11
-5.43607198766e-11
0
3.08161538964e-11
5.29186713516e-11
2.79120095065e-12
-8.23398830787e-12
-7.50844376874e-30
-1.09326159493e-10
9.09265937711e-11
-1.56800148819e-09
-1.08188305989e-12
-5.47727900977e-09
7.254477119e-12
-9.35118186121e-12
-3.34237471072e-10
-2.29037985512e-09
8.02413175259e-10
-3.99803805597e-10
-7.34910481801e-10
-2.15023089159e-09
1.00716180323e-11
-1.03966478109e-08
-3.05045356535e-09
-8.72180985887e-09
-8.42641714375e-09
-1.41588018735e-08
1.03732405852e-09
1.23768401081e-08
-4.74582717683e-09
-1.5985334278e-08
-3.29627484798e-08
-1.50054975109e-11
-4.03800649345e-09
-1.10081452448e-08
-5.90105712519e-08
-8.46838776281e-08
-1.23691597114e-07
-1.66466175023e-07
3.99986463215e-08
-6.66649426612e-09
0.000192045401115
-1.25111651866e-05
-6.68657412193e-06
-5.54715405905e-06
-1.11649119368e-05
0.0493688302595
5.48798933848e-05
-4.85924721675e-05
-0.0495313489763
0.0494495779617
0.000294677703659
-5.86709246031e-06
-5.94506611887e-06
1.70995047288e-07
-7.10658808449e-06
3.3148961685e-05
-0.0495667496594
-3.70389834424e-07
5.39333731539e-06
-0.0122280257081
-7.50646861623e-06
0.0122417508399
2.58886421512e-05
0.0122478689824
3.9003396344e-05
-4.24848628893e-07
7.57068866607e-06
-1.98571685746e-05
-0.0122239702227
1.92040059024e-05
1.33678662895e-05
1.96102850829e-05
1.36728703979e-05
-0.000260517634496
0.0123452355878
0.012320012432
0.0122871032377
0.0123386523126
-6.79198195738e-05
4.80242524695e-05
-8.90439493527e-08
-2.07558741876e-07
-2.84875440228e-05
0.0122649238824
0.000363537139655
-2.63816788717e-05
-1.80097238215e-05
-1.92934273694e-05
-2.22491283337e-05
8.57033120797e-05
-0.0496356278647
0.0497098110597
-3.06613013349e-05
-3.20526765996e-05
-2.46208397477e-05
-3.06549975408e-05
8.95333633045e-05
-0.0497144205664
0.000396647748836
0.012244091929
-3.87390293892e-07
1.88016757023e-05
-0.012221604877
4.35973504184e-05
0.0122018186943
-9.92172639638e-07
4.04480257826e-05
-4.71366367414e-05
-0.0121898470476
4.39149967837e-05
0.000710014712798
2.9939167938e-06
1.88256506409e-06
3.56289753517e-06
-2.26529269911e-06
0.0495499945081
-0.000179970229394
-0.000156962264555
-0.000177011311293
-0.000151047506552
-4.04504717524e-05
-1.01491281331e-05
-2.88776590976e-05
-1.95744631958e-05
0.0497447953102
-1.94991305553e-05
-2.59282030939e-05
-1.77275765143e-05
-2.26844419536e-05
4.59839247672e-05
0.0499138140893
0.00063766441351
-9.85515864741e-06
-3.15940144481e-05
-1.27645429351e-05
-2.50238423919e-05
-1.71962229846e-05
1.6673680808e-05
0.0122571331617
5.70275390993e-05
0.0122798247888
-2.16798781262e-07
1.71611858829e-05
-0.0122451201015
8.74364734833e-05
-8.94219131898e-05
5.30849397113e-05
-9.17605312813e-07
4.40040761278e-05
-5.08187926787e-05
0.0122357601432
0.0122458079964
8.95301511236e-05
-1.02886504008e-06
5.73615335211e-05
-0.000104449254145
-0.0121985806461
0.0502074269195
-3.48141594097e-05
-1.71420150754e-05
-2.33030771284e-05
-2.21613045435e-05
-0.000929906554904
-6.98222546889e-05
0.000941532732775
-8.41566721241e-06
-4.81168291424e-05
-3.54056248123e-05
-1.07011753575e-05
0.0508008208545
-0.000157114540446
-0.00127470006155
-6.45732774236e-06
0.012225372558
9.38567303465e-05
-0.000108739518794
-3.1780123205e-06
9.18556957695e-05
-0.0121409683549
0.000173910470145
0.0122395287132
-0.000166434680653
0.00010027660592
2.05334887016e-05
4.45149973172e-05
-0.000131282821933
0.0122106489525
0.000123223424371
-4.03763754084e-06
0.000115309193274
-0.000135209719455
-0.0120671620945
0.0121494612868
0.000539113040174
-5.65560058051e-05
-5.60357061262e-05
-4.81501618305e-05
-5.1964572369e-05
0.000152783563418
0.0502020481429
-4.757549703e-05
-5.32016263037e-05
-4.29030866357e-05
-4.57705840636e-05
0.000128125020301
-0.0500434388078
0.000441962480527
6.08153608053e-05
0.0122258003179
6.85811048169e-05
-0.0121904283237
0.0122158706772
-1.227511216e-06
6.92254144308e-05
-0.0121741894383
7.3783200254e-05
0.0121067858144
-2.31155249747e-06
7.14202656414e-05
-4.47205397862e-05
-0.0121012165122
4.61339285358e-05
0.000673843732614
-6.34281033817e-05
-7.43364406183e-05
-5.85231202904e-05
-5.1492906257e-05
0.0507363063363
0.000162878908741
0.0503900239401
-5.81327017207e-05
-5.43203714192e-05
-4.57709198789e-05
-4.68740984942e-05
0.000176555404885
-4.03540270318e-05
-4.71771946738e-05
-3.83262695338e-05
-2.95721228016e-05
0.0506439772388
0.000494813591976
8.0816268429e-05
6.10350449795e-05
0.0121952116332
9.01631281151e-05
-4.25703328073e-06
0.00011480214754
-0.0120464344091
0.000119609104628
0.0121232936455
4.84504379951e-05
-3.02693181141e-06
8.65718740748e-05
-2.59720715085e-05
0.0121433102154
5.31187059562e-05
-4.66564206607e-06
7.65746158809e-05
-3.80285025457e-05
-0.0119620867084
0.0120011655725
9.75344264126e-05
0.0121347531731
8.57010049781e-05
-0.0120979143296
6.46010918724e-05
-0.0119528223816
0.0119868634614
-4.52216758354e-06
7.12973573814e-05
-3.76480525506e-05
-1.21788513662e-05
-9.057251478e-06
8.41068374294e-07
0.000366278398097
6.39700614106e-05
-0.000401424535463
-3.09528006065e-09
0.000382906124477
-6.30145089792e-06
-2.29689863678e-06
1.54958406203e-07
7.32205992255e-07
-0.000423027204995
-7.66280511252e-10
-2.29137767887e-10
-1.74921696408e-05
9.43887772554e-08
-2.66914952386e-06
1.89226806772e-05
0.000352693262557
-1.19249463149e-11
1.13936698006e-09
4.22595024342e-09
5.09065447107e-10
5.32293441074e-10
6.75836020346e-11
1.84795430378e-11
7.54703919959e-11
6.32561642838e-12
6.22001912699e-11
2.80271277625e-10
1.06655419111e-10
7.8660090969e-12
1.44632620309e-11
3.54096115551e-12
5.12876097396e-11
3.00784273831e-11
-1.43886946429e-08
-6.0572560638e-12
2.89518134508e-09
1.91661968821e-08
-4.00378296482e-07
-1.63504520184e-09
2.49037613707e-09
1.88256472269e-09
-1.31812162321e-07
1.84562972054e-08
3.5520582481e-08
-4.78878060311e-07
1.61362220673e-05
1.8487805864e-08
4.10886921241e-07
1.24565295616e-06
-6.8577141584e-11
-0.000458685698029
0.000479429055185
4.08425279926e-07
-4.11282512523e-06
1.62129865085e-06
-0.000511312347024
-8.81618539788e-10
2.1397204039e-05
3.19936425416e-05
2.06956372366e-07
9.71173135141e-07
1.2128771507e-06
-4.33781390054e-05
-2.048407604e-05
0.000437672474037
1.9878811012e-07
7.57450722878e-08
8.23823346931e-07
4.47011102767e-07
3.16320645157e-07
0.000410136391708
3.16004456577e-05
1.08602730994e-06
1.34890677624e-06
-1.31105152682e-05
4.39515527884e-10
1.74109190648e-09
2.67895409962e-12
1.14917998365e-08
4.39725674256e-09
1.37034562827e-08
3.60913439938e-08
-1.80136282934e-09
1.64415131463e-08
3.81107887259e-08
3.75198668784e-05
5.56156868838e-07
4.2164372326e-06
3.10324261667e-06
-3.98081459015e-05
0.00033849773526
-1.99416186448e-05
0.000382440386303
5.70760274688e-07
2.18641589694e-06
2.03277562002e-06
1.33196468947e-06
6.23712588822e-07
5.78298232348e-05
2.10871396193e-06
2.4814798439e-06
4.39192534963e-08
0.00036374292205
1.63355044958e-08
2.13964701887e-08
3.7446457499e-08
3.89304956154e-08
4.7856812201e-08
6.02524505179e-08
7.22877335484e-08
1.02636334122e-07
2.22539177394e-05
4.76568302191e-07
6.67142194787e-07
1.37129794778e-06
1.17967039454e-06
5.10303088954e-07
0.000491680204595
1.04045453285e-06
-2.04650578302e-05
1.97821883066e-06
-0.000521427922065
1.37511594534e-05
9.51482645689e-08
-3.22722663831e-08
6.69205440023e-08
1.28168152984e-07
1.96217627109e-07
6.60385376377e-07
-3.86429157079e-07
1.81432789502e-07
7.3008181964e-05
7.66776691218e-07
1.15170370229e-06
9.45057635042e-07
1.86447677163e-06
0.000394972496564
0.000453635527348
8.38312641354e-07
-1.63988300873e-05
1.52051250063e-06
2.87239496573e-06
7.27966559308e-07
3.0174197692e-07
-4.80608116064e-05
2.52145329566e-06
0.000412684179145
9.79183361188e-05
3.44646917313e-07
1.8973451512e-07
1.7388939081e-07
4.14329257013e-07
9.94304317957e-07
2.92134808473e-07
8.53856170603e-07
2.57377234144e-07
0.0123869449876
-1.78105789958e-05
-2.5480957903e-05
3.90935793727e-05
-0.0123952559648
3.54151796971e-05
-0.0123800255572
0.0123598222131
-1.65050723759e-05
-2.43065880354e-05
4.98058386483e-06
2.67514172603e-05
-0.0122437046038
-3.39691201498e-06
-0.0122604251759
2.51149850216e-06
0.0122520380271
4.86450940158e-05
0.0123647055756
-6.53456532527e-07
-0.0122310513984
-1.37125538596e-05
-0.0123979782893
0.0123942931439
5.31124987034e-05
-1.31196996084e-05
-0.0124010745829
-6.08465122754e-05
-0.0123973732515
0.0123837553354
7.61469293255e-05
-8.6059944644e-06
-0.0122581801894
0.0122527116214
5.33367872027e-06
-2.30186742536e-05
3.15718558724e-05
-0.0122318679148
0.0123735651441
6.41002468026e-05
-0.0124101521478
-0.0122284284375
-0.0123571647507
8.95338033288e-05
1.48939345373e-05
-7.11469675791e-05
0.012343026085
-6.76061662088e-05
0.0123746857672
8.96396209942e-05
-2.34335558678e-05
0.0122491361316
-1.03737355665e-05
-1.05804689844e-06
-3.67162632059e-05
5.68081737266e-05
0.0122528286427
-5.50875516334e-05
0.000111880541375
0.0123648030639
-1.83310192299e-05
0.0122728711498
-6.61871986264e-05
0.0124246761593
-3.89414675801e-05
7.6536902332e-05
-0.012422410227
-0.0124095904727
8.38346823241e-05
0.0124027698582
1.38471149839e-05
2.58659209377e-05
-0.0122335028346
2.28335690595e-05
-0.0122445344265
4.72938056591e-05
0.012238681819
-0.0124171409733
8.97722108521e-05
0.0124193249401
3.73487428013e-05
-0.0122084695788
0.0124387524916
8.95008109326e-05
-4.89380538953e-05
-0.0124333892663
-9.35200266714e-05
-0.012443559513
0.0124471950292
9.84049668757e-05
2.64272103819e-05
-0.0122369023496
0.012233201941
2.70403442557e-05
-5.78724743675e-05
-0.0122234372009
4.0842544921e-05
0.0124367201
-0.0124476213873
8.99140516933e-05
-0.0121939628275
-0.000121458935559
-0.0124153742008
-2.39770160383e-05
0.0124181491616
0.000124026392416
0.0123984473575
0.000102326898496
1.48757158788e-05
7.23887816589e-05
0.0122419549479
1.48907890463e-05
0.0122299711625
5.83775383651e-05
0.0123955203881
0.00010690508968
0.012260907011
6.81901205083e-05
-0.000145822065112
0.0124291228204
-1.18624496289e-05
0.000149492294553
-0.012403503923
0.000168386496315
0.012422545559
-0.00016834780627
1.26007796193e-05
9.99808856135e-05
-7.55061112141e-05
2.69062867975e-05
-0.0122290939106
9.85065032943e-05
0.0121979633749
-0.000137694945188
0.000171795720708
0.0124503718835
8.06846459495e-05
-0.0124364221425
0.000124097704266
-2.83030184733e-05
0.012445084519
-0.000105540801511
0.0124561477477
0.000114715435147
1.60517375211e-05
0.0122202863234
3.86026188391e-05
-6.52052298363e-05
0.0122172810154
6.62464357967e-05
0.0124664956926
0.000129584567447
0.0122580621285
0.0124574835336
0.000148298693312
-2.1167136688e-05
-0.000166394432124
-0.0124795685984
0.0125053989017
0.000166468898282
2.98373680427e-05
-0.0122356049278
0.0121917335333
3.80647714677e-05
-7.60644859096e-05
8.0328240239e-05
0.0124799895375
0.000148388557235
-0.000233555978744
-0.0124785535022
-6.52129571484e-05
0.0125273461054
0.00023209303198
1.79230303439e-05
0.0124437494503
0.000199090479076
-2.0028450905e-05
-0.000206754099481
1.70281317614e-05
0.000151338399906
0.0121480060613
-0.000126800945851
4.13013716e-05
0.0122023543582
0.000121064289009
0.0124864849706
-1.28030258237e-05
-0.000246491569294
0.000200123325013
1.22970849354e-05
0.0122649170325
0.000133928748596
-0.000258577328321
-3.15305323741e-05
0.0125954845798
0.00025482900981
-3.28419964852e-05
-0.0125638354725
0.000299265506712
0.0126818053896
-0.00031599737332
-9.18956179725e-06
3.8625885631e-05
0.00018675510112
-0.000151866001423
-0.0122064461729
2.97163842422e-05
0.000165499995457
0.0120382434928
-0.000276043060134
-2.13250555267e-05
0.000152753291619
0.000281045869948
0.012676087456
-3.26906843853e-05
-0.012509032641
0.000219027940539
-7.21512077851e-05
0.0125594142986
-0.000192345717693
0.012534906531
0.000190300411507
4.45061737466e-05
0.0121871672972
4.66104371365e-05
-0.000122988340616
0.0121136452001
0.000113567705095
0.0125728869256
0.000205455293891
0.0122480673918
0.000238023921387
-4.91617949399e-05
0.0126168690313
-0.0126130755153
-0.000239647634857
0.000233146919497
0.0126870354656
-0.0122122703301
3.71000256471e-05
0.0120434581645
5.39971536635e-05
-0.000132791334033
0.000120503117552
0.000216420579087
0.0126842274128
-0.000121312502811
-0.0124826590376
-5.98248059449e-05
0.0124988362301
0.000109571667014
0.0124758180466
0.000115818662995
-0.0124634588313
4.91874000733e-05
5.91870522729e-05
0.0122066499715
3.6079599e-05
0.0121708757338
-0.0122162528424
4.49298750031e-05
0.0124874787571
-0.0124806681851
0.000101378974174
0.0121839300737
4.49978475762e-05
-0.000132531461398
0.0125192613516
-6.76067588614e-05
0.000123163979567
-0.0124999596225
0.000151127781539
0.0125287498314
4.47340320012e-05
5.96279622516e-05
5.76279472747e-05