/*--------------------------------*- C++ -*----------------------------------*\
| =========                 |                                                 |
| \\      /  F ield         | OpenFOAM: The Open Source CFD Toolbox           |
|  \\    /   O peration     | Version:  v1906                                 |
|   \\  /    A nd           | Web:      www.OpenFOAM.com                      |
|    \\/     M anipulation  |                                                 |
\*---------------------------------------------------------------------------*/
FoamFile
{
    version     2.0;
    format      ascii;
    class       volVectorField;
    location    "2";
    object      force.turbine;
}
// * * * * * * * * * * * * * * * * * * * * * * * * * * * * * * * * * * * * * //

dimensions      [1 -2 -2 0 0 0 0];


internalField   nonuniform List<vector> 
28582
(
(0 0 0)
(0 0 0)
(0 0 0)
(0 0 0)
(0 0 0)
(0 0 0)
(0 0 0)
(0 0 0)
(0 0 0)
(0 0 0)
(0 0 0)
(0 0 0)
(0 0 0)
(0 0 0)
(0 0 0)
(0 0 0)
(0 0 0)
(0 0 0)
(0 0 0)
(0 0 0)
(0 0 0)
(0 0 0)
(0 0 0)
(0 0 0)
(0 0 0)
(0 0 0)
(0 0 0)
(0 0 0)
(0 0 0)
(0 0 0)
(0 0 0)
(0 0 0)
(0 0 0)
(0 0 0)
(0 0 0)
(0 0 0)
(0 0 0)
(0 0 0)
(0 0 0)
(0 0 0)
(0 0 0)
(0 0 0)
(0 0 0)
(0 0 0)
(0 0 0)
(0 0 0)
(0 0 0)
(0 0 0)
(0 0 0)
(0 0 0)
(0 0 0)
(0 0 0)
(0 0 0)
(0 0 0)
(0 0 0)
(0 0 0)
(0 0 0)
(0 0 0)
(0 0 0)
(0 0 0)
(0 0 0)
(0 0 0)
(0 0 0)
(0 0 0)
(0 0 0)
(0 0 0)
(0 0 0)
(0 0 0)
(0 0 0)
(0 0 0)
(0 0 0)
(0 0 0)
(0 0 0)
(0 0 0)
(0 0 0)
(0 0 0)
(0 0 0)
(0 0 0)
(0 0 0)
(0 0 0)
(0 0 0)
(0 0 0)
(0 0 0)
(0 0 0)
(0 0 0)
(0 0 0)
(0 0 0)
(0 0 0)
(0 0 0)
(0 0 0)
(0 0 0)
(0 0 0)
(0 0 0)
(0 0 0)
(0 0 0)
(0 0 0)
(0 0 0)
(0 0 0)
(0 0 0)
(0 0 0)
(0 0 0)
(0 0 0)
(0 0 0)
(0 0 0)
(0 0 0)
(0 0 0)
(0 0 0)
(0 0 0)
(0 0 0)
(0 0 0)
(0 0 0)
(0 0 0)
(0 0 0)
(0 0 0)
(0 0 0)
(0 0 0)
(0 0 0)
(0 0 0)
(0 0 0)
(0 0 0)
(0 0 0)
(0 0 0)
(0 0 0)
(0 0 0)
(0 0 0)
(0 0 0)
(0 0 0)
(0 0 0)
(0 0 0)
(0 0 0)
(0 0 0)
(0 0 0)
(0 0 0)
(0 0 0)
(0 0 0)
(0 0 0)
(0 0 0)
(0 0 0)
(0 0 0)
(0 0 0)
(0 0 0)
(0 0 0)
(0 0 0)
(0 0 0)
(0 0 0)
(0 0 0)
(0 0 0)
(0 0 0)
(0 0 0)
(0 0 0)
(0 0 0)
(0 0 0)
(0 0 0)
(0 0 0)
(0 0 0)
(0 0 0)
(0 0 0)
(0 0 0)
(0 0 0)
(0 0 0)
(0 0 0)
(0 0 0)
(0 0 0)
(0 0 0)
(0 0 0)
(0 0 0)
(0 0 0)
(0 0 0)
(0 0 0)
(0 0 0)
(0 0 0)
(0 0 0)
(0 0 0)
(0 0 0)
(0 0 0)
(0 0 0)
(0 0 0)
(0 0 0)
(0 0 0)
(0 0 0)
(0 0 0)
(0 0 0)
(0 0 0)
(0 0 0)
(0 0 0)
(0 0 0)
(0 0 0)
(0 0 0)
(0 0 0)
(0 0 0)
(0 0 0)
(0 0 0)
(0 0 0)
(0 0 0)
(0 0 0)
(0 0 0)
(0 0 0)
(0 0 0)
(0 0 0)
(0 0 0)
(0 0 0)
(0 0 0)
(0 0 0)
(0 0 0)
(0 0 0)
(0 0 0)
(0 0 0)
(0 0 0)
(0 0 0)
(0 0 0)
(0 0 0)
(0 0 0)
(0 0 0)
(0 0 0)
(0 0 0)
(0 0 0)
(0 0 0)
(-0.00072792981711 1.18557309853e-05 0)
(0 0 0)
(0 0 0)
(0 0 0)
(0 0 0)
(-2.59419762673e-05 1.67722179631e-07 0)
(0 0 0)
(-2.63168315289e-06 1.21189702223e-08 0)
(0 0 0)
(0 0 0)
(0 0 0)
(0 0 0)
(0 0 0)
(0 0 0)
(0 0 0)
(0 0 0)
(0 0 0)
(0 0 0)
(0 0 0)
(0 0 0)
(-0.0169012065789 0.000500743382035 0)
(0 0 0)
(0 0 0)
(0 0 0)
(-0.0324693898472 0.000666391903 0)
(0 0 0)
(0 0 0)
(-0.0299624034992 0.000870608789593 0)
(-0.134282282595 0.00390180098593 0)
(-0.0931618793386 0.000976502782007 0.00026065693388)
(-1.88169218458 -0.211599945254 0.071408292806)
(-0.00653461743468 5.42028924488e-05 0)
(-0.0865414662981 0.0017761507896 0)
(0 0 0)
(0 0 0)
(0 0 0)
(0 0 0)
(0 0 0)
(-0.0169013255907 0.000500746908077 0)
(0 0 0)
(0 0 0)
(0 0 0)
(-0.0317271031195 0.00065115743548 0)
(0 0 0)
(0 0 0)
(0 0 0)
(0 0 0)
(0 0 0)
(0 0 0)
(0 0 0)
(0 0 0)
(-1.51644311572e-05 1.09841181852e-07 0)
(0 0 0)
(-9.1975134919e-06 6.66207483536e-08 0)
(-0.000127976882889 1.55519554245e-06 0)
(-0.000574671116862 6.98349529342e-06 0)
(-7.76521021104e-05 9.43640760254e-07 0)
(-0.000349564349534 4.24796186564e-06 0)
(0 0 0)
(0 0 0)
(-7.22191612504e-05 5.65719015384e-07 0)
(0 0 0)
(0 0 0)
(0 0 0)
(0 0 0)
(0 0 0)
(0 0 0)
(-0.00385737291751 6.28247044498e-05 0)
(-0.000163679526445 2.14567355921e-06 0)
(-0.000899391637779 1.46483150674e-05 0)
(-2.79087264333e-05 2.96219901133e-07 0)
(-0.000128921956285 1.56668022547e-06 0)
(-3.61938854994e-06 1.66673795861e-08 0)
(-2.81408459266e-05 2.98683589812e-07 0)
(0 0 0)
(0 0 0)
(0 0 0)
(0 0 0)
(0 0 0)
(-0.000103666318087 8.12056057991e-07 0)
(0 0 0)
(0 0 0)
(0 0 0)
(0 0 0)
(0 0 0)
(0 0 0)
(0 0 0)
(0 0 0)
(0 0 0)
(0 0 0)
(0 0 0)
(0 0 0)
(0 0 0)
(0 0 0)
(0 0 0)
(0 0 0)
(0 0 0)
(0 0 0)
(0 0 0)
(0 0 0)
(-0.00543212124314 4.67357990928e-05 0)
(0 0 0)
(0 0 0)
(0 0 0)
(0 0 0)
(0 0 0)
(-0.00512502462148 4.25106995371e-05 0)
(0 0 0)
(0 0 0)
(0 0 0)
(0 0 0)
(0 0 0)
(0 0 0)
(0 0 0)
(0 0 0)
(0 0 0)
(0 0 0)
(0 0 0)
(0 0 0)
(0 0 0)
(0 0 0)
(0 0 0)
(0 0 0)
(0 0 0)
(0 0 0)
(0 0 0)
(0 0 0)
(0 0 0)
(0 0 0)
(-0.0380124663103 0.000908312671327 0)
(-0.00952889083273 0.000146668007183 0)
(-0.0156871178822 0.000241454998134 0)
(-0.0107621198872 0.000183811357788 0)
(-0.0203462352675 0.000486175854952 0)
(0 0 0)
(0 0 0)
(0 0 0)
(0 0 0)
(0 0 0)
(0 0 0)
(0 0 0)
(0 0 0)
(0 0 0)
(0 0 0)
(-0.00576689872717 4.78348724461e-05 0)
(0 0 0)
(-0.00838149799491 0.000143151585644 0)
(0 0 0)
(0 0 0)
(-0.250683239057 -0.0207417033472 0.00748735272319)
(-0.296713017116 -0.0384426764365 0.012785487733)
(-0.414987216994 -0.0385319051754 0.0133923309546)
(-0.0467945517571 0.000960397178456 0)
(-1.32572011326 -0.235094198731 0.0752487164534)
(-0.055306971373 0.00132156704857 0)
(-0.112755052746 0.00231415048222 0)
(-0.713148907643 -0.0866881029574 0.0291977103448)
(-5.90972791834 -1.08729584201 0.34674927771)
(-1.06119005167 -0.124842516164 0.0418208389292)
(-0.571178671792 -0.0165803897335 0.00804310194885)
(-3.50669914672 -0.659151074207 0.209677028934)
(-0.301635397605 -0.00704494987353 0.00375192966799)
(-1.26181371616 -0.147655411032 0.0500869915312)
(-0.0645512536899 0.00153790134152 0)
(-0.00949755588306 0.000162213268466 0)
(-0.0220513078364 0.000452574349622 0)
(-0.0220403469635 0.000452349391994 0)
(-0.0261254411019 0.000624270706434 0)
(-0.0261254182285 0.000624270159871 0)
(-0.0531212220137 0.0010902438387 0)
(-0.13665476353 0.00325573140945 0)
(-0.106425715106 0.00253553944623 0)
(-0.211265453143 0.00433903486055 0)
(-0.046160796395 0.000947390175745 0)
(-0.0553063958665 0.00132155329677 0)
(-0.112534144951 0.00230961663769 0)
(-0.277844858183 0.00167971728777 0.0013736739129)
(0 0 0)
(0 0 0)
(0 0 0)
(0 0 0)
(0 0 0)
(0 0 0)
(0 0 0)
(0 0 0)
(0 0 0)
(0 0 0)
(0 0 0)
(0 0 0)
(0 0 0)
(0 0 0)
(0 0 0)
(0 0 0)
(0 0 0)
(0 0 0)
(0 0 0)
(0 0 0)
(0 0 0)
(0 0 0)
(0 0 0)
(-0.0057190524861 4.7438000757e-05 0)
(0 0 0)
(-0.00838154515481 0.00014315239111 0)
(0 0 0)
(0 0 0)
(0 0 0)
(-0.0380115826491 0.000908291556129 0)
(-0.0153667100781 0.000236523304095 0)
(-0.00933429914791 0.000143672865867 0)
(-0.0203461405459 0.000486173591568 0)
(0 0 0)
(-0.0107617850205 0.000183805638441 0)
(0 0 0)
(0 0 0)
(0 0 0)
(0 0 0)
(0 0 0)
(0 0 0)
(0 0 0)
(0 0 0)
(0 0 0)
(0 0 0)
(0 0 0)
(0 0 0)
(0 0 0)
(0 0 0)
(0 0 0)
(0 0 0)
(0 0 0)
(0 0 0)
(0 0 0)
(0 0 0)
(0 0 0)
(0 0 0)
(0 0 0)
(0 0 0)
(0 0 0)
(0 0 0)
(0 0 0)
(0 0 0)
(0 0 0)
(0 0 0)
(0 0 0)
(0 0 0)
(0 0 0)
(0 0 0)
(0 0 0)
(0 0 0)
(-0.0154948364125 0.000332671563496 0)
(0 0 0)
(0 0 0)
(0 0 0)
(0 0 0)
(0 0 0)
(0 0 0)
(0 0 0)
(-0.00345746469601 7.42311926072e-05 0)
(0 0 0)
(0 0 0)
(0 0 0)
(0 0 0)
(0 0 0)
(0 0 0)
(0 0 0)
(0 0 0)
(0 0 0)
(0 0 0)
(0 0 0)
(0 0 0)
(0 0 0)
(0 0 0)
(0 0 0)
(0 0 0)
(0 0 0)
(0 0 0)
(0 0 0)
(0 0 0)
(0 0 0)
(0 0 0)
(0 0 0)
(0 0 0)
(0 0 0)
(0 0 0)
(0 0 0)
(-0.333710187034 0.00976358766092 0)
(-0.00795539046691 0.000170800911632 0)
(0 0 0)
(0 0 0)
(0 0 0)
(0 0 0)
(0 0 0)
(0 0 0)
(-0.0732721499913 0.00216444901817 0)
(0 0 0)
(0 0 0)
(0 0 0)
(0 0 0)
(0 0 0)
(0 0 0)
(0 0 0)
(0 0 0)
(0 0 0)
(0 0 0)
(0 0 0)
(0 0 0)
(0 0 0)
(0 0 0)
(0 0 0)
(0 0 0)
(0 0 0)
(0 0 0)
(0 0 0)
(0 0 0)
(0 0 0)
(0 0 0)
(0 0 0)
(0 0 0)
(0 0 0)
(0 0 0)
(0 0 0)
(-1.58448128388 0.0582796888708 0)
(-0.0452041867944 0.00170209228704 0)
(0 0 0)
(0 0 0)
(0 0 0)
(0 0 0)
(0 0 0)
(0 0 0)
(-0.347630309065 0.0126392017207 0)
(-0.00686973050276 0.000283653659375 0)
(0 0 0)
(0 0 0)
(0 0 0)
(0 0 0)
(0 0 0)
(0 0 0)
(0 0 0)
(0 0 0)
(0 0 0)
(0 0 0)
(0 0 0)
(0 0 0)
(0 0 0)
(0 0 0)
(0 0 0)
(0 0 0)
(0 0 0)
(0 0 0)
(0 0 0)
(0 0 0)
(0 0 0)
(0 0 0)
(0 0 0)
(0 0 0)
(0 0 0)
(0 0 0)
(0 0 0)
(0 0 0)
(0 0 0)
(0 0 0)
(0 0 0)
(0 0 0)
(0 0 0)
(-2.69713207756 0.078369777427 0)
(-0.0814467347851 0.00236657393621 0)
(0 0 0)
(0 0 0)
(0 0 0)
(0 0 0)
(0 0 0)
(0 0 0)
(-2.69713680308 0.0783699147352 0)
(-0.601812658269 0.0174866942831 0)
(-0.0169013315026 0.000500747083234 0)
(0 0 0)
(0 0 0)
(0 0 0)
(0 0 0)
(0 0 0)
(0 0 0)
(-0.0494000565957 0.00143540298693 0)
(-0.0814470234522 0.00236658232393 0)
(-0.0169013646346 0.000500748064858 0)
(0 0 0)
(0 0 0)
(0 0 0)
(0 0 0)
(0 0 0)
(0 0 0)
(0 0 0)
(0 0 0)
(0 0 0)
(0 0 0)
(0 0 0)
(0 0 0)
(0 0 0)
(0 0 0)
(0 0 0)
(0 0 0)
(0 0 0)
(0 0 0)
(0 0 0)
(0 0 0)
(0 0 0)
(0 0 0)
(0 0 0)
(0 0 0)
(0 0 0)
(0 0 0)
(-0.0280707188318 0.000458003725179 0)
(-0.000883321779442 1.43865866522e-05 0)
(0 0 0)
(0 0 0)
(0 0 0)
(0 0 0)
(0 0 0)
(0 0 0)
(-0.0125678627758 0.000205058089297 0)
(-0.0256094172553 0.000417844964102 0)
(-0.00623434375474 0.000101538226198 0)
(-0.000154822049135 1.21277754657e-06 0)
(0 0 0)
(0 0 0)
(0 0 0)
(0 0 0)
(0 0 0)
(0 0 0)
(-0.000381821471329 5.00529451157e-06 0)
(-0.000788231060056 1.28378521976e-05 0)
(-0.000144533087852 1.13218036231e-06 0)
(0 0 0)
(0 0 0)
(0 0 0)
(0 0 0)
(0 0 0)
(0 0 0)
(0 0 0)
(0 0 0)
(0 0 0)
(0 0 0)
(0 0 0)
(0 0 0)
(0 0 0)
(0 0 0)
(0 0 0)
(0 0 0)
(0 0 0)
(0 0 0)
(0 0 0)
(0 0 0)
(0 0 0)
(0 0 0)
(0 0 0)
(0 0 0)
(0 0 0)
(0 0 0)
(-0.000200941351179 1.61380568932e-06 0)
(-0.000200935414452 1.61375801012e-06 0)
(-2.5948135726e-05 1.67762002265e-07 0)
(0 0 0)
(0 0 0)
(0 0 0)
(0 0 0)
(0 0 0)
(0 0 0)
(0 0 0)
(-2.59448391887e-05 1.67740689224e-07 0)
(-2.59426204157e-05 1.67726344232e-07 0)
(-2.63179097803e-06 1.21194667599e-08 0)
(0 0 0)
(0 0 0)
(0 0 0)
(0 0 0)
(0 0 0)
(0 0 0)
(0 0 0)
(0 0 0)
(0 0 0)
(0 0 0)
(0 0 0)
(0 0 0)
(0 0 0)
(0 0 0)
(0 0 0)
(0 0 0)
(0 0 0)
(0 0 0)
(0 0 0)
(0 0 0)
(0 0 0)
(0 0 0)
(0 0 0)
(0 0 0)
(0 0 0)
(0 0 0)
(0 0 0)
(0 0 0)
(0 0 0)
(0 0 0)
(0 0 0)
(0 0 0)
(0 0 0)
(0 0 0)
(0 0 0)
(0 0 0)
(-0.00345728433657 7.42273203199e-05 0)
(-0.0093983442808 0.000201780890287 0)
(-0.00209705315686 4.50233828775e-05 0)
(-0.0895980753009 0.00229373074424 0)
(-0.018303379688 0.000392970521015 0)
(-0.0543490439182 0.00139134766608 0)
(-0.0111019825042 0.000238357719903 0)
(0 0 0)
(0 0 0)
(0 0 0)
(-0.0024772899958 5.31870046378e-05 0)
(0 0 0)
(0 0 0)
(0 0 0)
(0 0 0)
(0 0 0)
(0 0 0)
(-0.0183053802811 0.000393013473416 0)
(-0.00408447538482 8.76930079257e-05 0)
(-0.00408450010707 8.76935387083e-05 0)
(0 0 0)
(0 0 0)
(0 0 0)
(0 0 0)
(0 0 0)
(0 0 0)
(0 0 0)
(0 0 0)
(-0.0732698010989 0.00216437963222 0)
(-0.202413890604 0.00592216192817 0)
(-0.0444390669846 0.00131272379635 0)
(-0.835287507722 0.0279486061961 0)
(-0.184222068776 0.00622689464317 0)
(-0.506628109816 0.0169517075237 0)
(-0.111733301266 0.00377670004327 0)
(0 0 0)
(-0.00482510909625 0.000103594290663 0)
(0 0 0)
(-0.0237339781041 0.000828362893738 0)
(0 0 0)
(-0.0126884331437 0.000433271249991 0)
(0 0 0)
(-0.0154729603113 0.000447451939609 0)
(-0.0154739708253 0.000447481161971 0)
(-0.00292665560629 6.28348096384e-05 0)
(-0.184221438843 0.00622687335081 0)
(-0.0391282724292 0.00136565428831 0)
(-0.0391306952749 0.00136573885042 0)
(-0.00769603399426 0.000262796062437 0)
(0 0 0)
(0 0 0)
(0 0 0)
(-0.00345739629904 7.42297241355e-05 0)
(0 0 0)
(0 0 0)
(0 0 0)
(-0.347617168755 0.0126387239631 0)
(-0.944889846761 0.0343544652628 0)
(-0.210843941628 0.00766589978014 0)
(-2.33667050917 0.0820620783092 0)
(-0.5154332014 0.0179445285195 0)
(-1.40109994945 0.0487785380012 0)
(-0.312630115072 0.0108840486036 0)
(0 0 0)
(-0.027417793461 0.00103237372658 0)
(0 0 0)
(-0.069757486479 0.0024285692155 0)
(0 0 0)
(-0.0423100939157 0.00147300306785 0)
(0 0 0)
(-0.0775685792672 0.00282025155742 0)
(-0.0775697201078 0.0028202930363 0)
(-0.0146508617887 0.000602360906044 0)
(-0.51543978967 0.0179447578865 0)
(-0.115010600348 0.0040040319335 0)
(-0.115011035404 0.00400404707974 0)
(-0.0256624372311 0.000893423891828 0)
(0 0 0)
(0 0 0)
(0 0 0)
(-0.0140041684858 0.000534700873486 0)
(0 0 0)
(0 0 0)
(0 0 0)
(-7.52870349042 0.225157637508 0)
(-4.47343905024 0.130849329724 0)
(-4.60237700282 0.0945250345454 0)
(-2.17829595252 0.0447385123026 0)
(-0.601813562581 0.0174867205594 0)
(-1.63588676691 0.0475334830228 0)
(-0.36501667012 0.0106061825568 0)
(-2.8107663343 0.0577283835475 0)
(-0.29719637422 0.00610391054941 0)
(-1.33006629995 0.0273173107881 0)
(-0.140374182641 0.00288304814127 0)
(0 0 0)
(-0.0493998318034 0.00143539645521 0)
(0 0 0)
(-0.107686380702 0.0022101225955 0)
(0 0 0)
(-0.0508977485144 0.00104460994341 0)
(0 0 0)
(0 0 0)
(0 0 0)
(0 0 0)
(0 0 0)
(0 0 0)
(0 0 0)
(0 0 0)
(0 0 0)
(0 0 0)
(0 0 0)
(0 0 0)
(0 0 0)
(0 0 0)
(0 0 0)
(0 0 0)
(0 0 0)
(0 0 0)
(0 0 0)
(0 0 0)
(0 0 0)
(0 0 0)
(0 0 0)
(0 0 0)
(0 0 0)
(0 0 0)
(0 0 0)
(0 0 0)
(0 0 0)
(0 0 0)
(0 0 0)
(0 0 0)
(0 0 0)
(0 0 0)
(0 0 0)
(0 0 0)
(0 0 0)
(0 0 0)
(0 0 0)
(0 0 0)
(0 0 0)
(0 0 0)
(0 0 0)
(-0.365017293 0.0106062006557 0)
(-0.601812731319 0.0174866964057 0)
(-2.42783465599 -0.200457084933 0.0714294036131)
(-2.82410762005 0.0571140452651 0.000247493374701)
(-0.145048104279 0.00297904258155 0)
(-0.298454700399 0.00612975443954 0)
(-1.63589432014 0.0475337024947 0)
(-0.601812262383 0.0174866827799 0)
(-0.36501815611 0.0106062257348 0)
(-2.83974539477 0.0583235644051 0)
(-1.32302914149 0.0271727794631 0)
(-0.300122771424 0.00616401379534 0)
(-0.140153926654 0.00287852445606 0)
(-0.134283090863 0.00390182447153 0)
(-0.134283225909 0.00390182839551 0)
(-0.0299627056025 0.000870617567718 0)
(-0.807617051997 0.0165870874317 0)
(-0.0838286093305 0.00172047293653 0)
(-0.0841403607045 0.00172687122711 0)
(-0.00625869235067 5.19141681582e-05 0)
(0 0 0)
(0 0 0)
(0 0 0)
(-0.0308861547861 0.000633898067106 0)
(0 0 0)
(0 0 0)
(0 0 0)
(0 0 0)
(0 0 0)
(0 0 0)
(0 0 0)
(0 0 0)
(0 0 0)
(0 0 0)
(0 0 0)
(0 0 0)
(0 0 0)
(0 0 0)
(0 0 0)
(0 0 0)
(0 0 0)
(0 0 0)
(0 0 0)
(0 0 0)
(0 0 0)
(0 0 0)
(0 0 0)
(0 0 0)
(0 0 0)
(0 0 0)
(0 0 0)
(0 0 0)
(0 0 0)
(0 0 0)
(0 0 0)
(0 0 0)
(0 0 0)
(0 0 0)
(0 0 0)
(0 0 0)
(0 0 0)
(0 0 0)
(0 0 0)
(0 0 0)
(0 0 0)
(0 0 0)
(0 0 0)
(0 0 0)
(0 0 0)
(-0.081446988437 0.0023665813065 0)
(0 0 0)
(0 0 0)
(-0.0524015908108 0.0010754743463 0)
(-0.108143714586 0.00221950877734 0)
(0 0 0)
(0 0 0)
(-0.0494001790409 0.00143540654479 0)
(0 0 0)
(0 0 0)
(-0.108749096717 0.00223193345646 0)
(-0.0508305930694 0.00104323166544 0)
(0 0 0)
(0 0 0)
(0 0 0)
(0 0 0)
(0 0 0)
(-0.0309856354576 0.000635939778216 0)
(0 0 0)
(0 0 0)
(0 0 0)
(0 0 0)
(0 0 0)
(0 0 0)
(0 0 0)
(0 0 0)
(0 0 0)
(0 0 0)
(0 0 0)
(0 0 0)
(0 0 0)
(0 0 0)
(0 0 0)
(0 0 0)
(0 0 0)
(0 0 0)
(0 0 0)
(0 0 0)
(0 0 0)
(0 0 0)
(0 0 0)
(0 0 0)
(0 0 0)
(0 0 0)
(0 0 0)
(0 0 0)
(0 0 0)
(0 0 0)
(0 0 0)
(0 0 0)
(0 0 0)
(0 0 0)
(0 0 0)
(0 0 0)
(0 0 0)
(0 0 0)
(0 0 0)
(0 0 0)
(0 0 0)
(0 0 0)
(0 0 0)
(0 0 0)
(0 0 0)
(0 0 0)
(0 0 0)
(0 0 0)
(0 0 0)
(0 0 0)
(0 0 0)
(0 0 0)
(0 0 0)
(0 0 0)
(0 0 0)
(0 0 0)
(0 0 0)
(0 0 0)
(0 0 0)
(0 0 0)
(0 0 0)
(0 0 0)
(0 0 0)
(0 0 0)
(0 0 0)
(0 0 0)
(0 0 0)
(0 0 0)
(0 0 0)
(0 0 0)
(0 0 0)
(0 0 0)
(0 0 0)
(0 0 0)
(0 0 0)
(0 0 0)
(0 0 0)
(0 0 0)
(0 0 0)
(0 0 0)
(0 0 0)
(0 0 0)
(0 0 0)
(0 0 0)
(0 0 0)
(0 0 0)
(0 0 0)
(0 0 0)
(0 0 0)
(0 0 0)
(0 0 0)
(0 0 0)
(0 0 0)
(0 0 0)
(0 0 0)
(0 0 0)
(0 0 0)
(0 0 0)
(0 0 0)
(0 0 0)
(0 0 0)
(0 0 0)
(0 0 0)
(0 0 0)
(0 0 0)
(0 0 0)
(0 0 0)
(0 0 0)
(0 0 0)
(0 0 0)
(0 0 0)
(0 0 0)
(0 0 0)
(0 0 0)
(0 0 0)
(0 0 0)
(0 0 0)
(0 0 0)
(0 0 0)
(0 0 0)
(0 0 0)
(0 0 0)
(0 0 0)
(0 0 0)
(0 0 0)
(0 0 0)
(0 0 0)
(0 0 0)
(0 0 0)
(0 0 0)
(0 0 0)
(0 0 0)
(0 0 0)
(0 0 0)
(0 0 0)
(0 0 0)
(0 0 0)
(0 0 0)
(0 0 0)
(0 0 0)
(0 0 0)
(0 0 0)
(0 0 0)
(0 0 0)
(0 0 0)
(0 0 0)
(0 0 0)
(0 0 0)
(0 0 0)
(0 0 0)
(0 0 0)
(0 0 0)
(0 0 0)
(0 0 0)
(0 0 0)
(0 0 0)
(0 0 0)
(0 0 0)
(0 0 0)
(0 0 0)
(0 0 0)
(0 0 0)
(0 0 0)
(0 0 0)
(0 0 0)
(0 0 0)
(0 0 0)
(0 0 0)
(0 0 0)
(0 0 0)
(0 0 0)
(0 0 0)
(0 0 0)
(-0.00158692634598 1.93044737022e-05 0)
(-0.00259204626536 3.15314501465e-05 0)
(-0.000957141556493 1.16313372271e-05 0)
(-0.00156231307483 1.90050607856e-05 0)
(-0.0746110181147 0.00121735835981 0)
(-0.0448745885935 0.000732176787664 0)
(-0.00257813472652 3.13622205309e-05 0)
(-0.00156518891997 1.90400445623e-05 0)
(-0.00156248184514 1.90071138248e-05 0)
(-0.000947501209925 1.15141861943e-05 0)
(-0.00636122055126 0.000103604657786 0)
(-0.0171524294814 0.000279860186176 0)
(-0.00388237881255 6.32319733343e-05 0)
(-0.000576392275436 7.0044110876e-06 0)
(-0.000128331501438 1.55950492377e-06 0)
(-0.000350876151222 4.26390308949e-06 0)
(-7.87224049435e-05 9.56647251407e-07 0)
(0 0 0)
(-0.000505619219372 6.62815816739e-06 0)
(0 0 0)
(-1.5167629094e-05 1.09864345606e-07 0)
(0 0 0)
(-9.28576103465e-06 6.72599556071e-08 0)
(0 0 0)
(0 0 0)
(0 0 0)
(0 0 0)
(0 0 0)
(0 0 0)
(0 0 0)
(0 0 0)
(0 0 0)
(0 0 0)
(0 0 0)
(0 0 0)
(0 0 0)
(0 0 0)
(0 0 0)
(0 0 0)
(0 0 0)
(0 0 0)
(0 0 0)
(0 0 0)
(0 0 0)
(0 0 0)
(0 0 0)
(0 0 0)
(0 0 0)
(0 0 0)
(0 0 0)
(0 0 0)
(0 0 0)
(0 0 0)
(0 0 0)
(0 0 0)
(0 0 0)
(0 0 0)
(0 0 0)
(0 0 0)
(0 0 0)
(0 0 0)
(0 0 0)
(0 0 0)
(0 0 0)
(0 0 0)
(0 0 0)
(-0.0233948587418 0.000381712079336 0)
(-0.00285352766942 4.64751623201e-05 0)
(-0.00529748280867 8.62796516956e-05 0)
(-0.000351016213228 4.26560514538e-06 0)
(-0.000574502450202 6.9814456292e-06 0)
(-7.88688645299e-05 9.58427051718e-07 0)
(-0.000129138888991 1.5693164264e-06 0)
(-0.0164524940074 0.000268439992185 0)
(-0.00570043470335 9.28424949135e-05 0)
(-0.00365008748426 5.94486642381e-05 0)
(-0.00057423829986 6.97823563201e-06 0)
(-0.000348523650103 4.23531511976e-06 0)
(-0.000128337253972 1.55957482947e-06 0)
(-7.76516667707e-05 9.43635469937e-07 0)
(-0.00140700952084 2.29158443312e-05 0)
(-0.0013563120895 2.20901395812e-05 0)
(-0.000293663126406 3.84962749668e-06 0)
(-0.000128609248426 1.56288014957e-06 0)
(-2.8193786865e-05 2.99245498632e-07 0)
(-2.78622376973e-05 2.95726475221e-07 0)
(-3.59955847319e-06 1.65760615605e-08 0)
(0 0 0)
(0 0 0)
(0 0 0)
(0 0 0)
(0 0 0)
(0 0 0)
(0 0 0)
(0 0 0)
(0 0 0)
(0 0 0)
(0 0 0)
(0 0 0)
(0 0 0)
(0 0 0)
(0 0 0)
(0 0 0)
(0 0 0)
(0 0 0)
(0 0 0)
(0 0 0)
(0 0 0)
(0 0 0)
(0 0 0)
(0 0 0)
(0 0 0)
(0 0 0)
(0 0 0)
(0 0 0)
(0 0 0)
(0 0 0)
(0 0 0)
(0 0 0)
(0 0 0)
(0 0 0)
(0 0 0)
(0 0 0)
(0 0 0)
(0 0 0)
(0 0 0)
(0 0 0)
(0 0 0)
(0 0 0)
(0 0 0)
(0 0 0)
(0 0 0)
(0 0 0)
(0 0 0)
(0 0 0)
(0 0 0)
(-0.000729656118181 1.1883847104e-05 0)
(0 0 0)
(0 0 0)
(-9.52835784735e-06 6.90171676215e-08 0)
(-1.5490507416e-05 1.12203064159e-07 0)
(0 0 0)
(0 0 0)
(-0.000459473120763 6.02322934216e-06 0)
(0 0 0)
(0 0 0)
(-1.52240344134e-05 1.10272908702e-07 0)
(-9.20091826572e-06 6.66454102994e-08 0)
(0 0 0)
(0 0 0)
(0 0 0)
(0 0 0)
(0 0 0)
(0 0 0)
(0 0 0)
(0 0 0)
(0 0 0)
(0 0 0)
(0 0 0)
(0 0 0)
(0 0 0)
(0 0 0)
(0 0 0)
(0 0 0)
(0 0 0)
(0 0 0)
(0 0 0)
(0 0 0)
(0 0 0)
(0 0 0)
(0 0 0)
(0 0 0)
(0 0 0)
(0 0 0)
(0 0 0)
(0 0 0)
(0 0 0)
(0 0 0)
(0 0 0)
(0 0 0)
(0 0 0)
(0 0 0)
(0 0 0)
(0 0 0)
(0 0 0)
(0 0 0)
(0 0 0)
(0 0 0)
(0 0 0)
(0 0 0)
(0 0 0)
(0 0 0)
(0 0 0)
(0 0 0)
(0 0 0)
(0 0 0)
(0 0 0)
(0 0 0)
(0 0 0)
(0 0 0)
(0 0 0)
(0 0 0)
(0 0 0)
(0 0 0)
(0 0 0)
(0 0 0)
(0 0 0)
(0 0 0)
(0 0 0)
(0 0 0)
(0 0 0)
(0 0 0)
(0 0 0)
(0 0 0)
(0 0 0)
(0 0 0)
(0 0 0)
(0 0 0)
(0 0 0)
(0 0 0)
(0 0 0)
(0 0 0)
(0 0 0)
(0 0 0)
(0 0 0)
(0 0 0)
(0 0 0)
(0 0 0)
(0 0 0)
(0 0 0)
(0 0 0)
(0 0 0)
(0 0 0)
(0 0 0)
(0 0 0)
(0 0 0)
(0 0 0)
(0 0 0)
(0 0 0)
(0 0 0)
(0 0 0)
(0 0 0)
(0 0 0)
(0 0 0)
(0 0 0)
(0 0 0)
(0 0 0)
(0 0 0)
(0 0 0)
(0 0 0)
(0 0 0)
(0 0 0)
(0 0 0)
(0 0 0)
(0 0 0)
(0 0 0)
(0 0 0)
(0 0 0)
(0 0 0)
(0 0 0)
(0 0 0)
(0 0 0)
(0 0 0)
(0 0 0)
(0 0 0)
(0 0 0)
(0 0 0)
(0 0 0)
(0 0 0)
(0 0 0)
(0 0 0)
(0 0 0)
(0 0 0)
(0 0 0)
(0 0 0)
(0 0 0)
(0 0 0)
(0 0 0)
(0 0 0)
(0 0 0)
(0 0 0)
(0 0 0)
(0 0 0)
(0 0 0)
(0 0 0)
(0 0 0)
(0 0 0)
(0 0 0)
(0 0 0)
(0 0 0)
(0 0 0)
(0 0 0)
(0 0 0)
(0 0 0)
(0 0 0)
(0 0 0)
(0 0 0)
(0 0 0)
(0 0 0)
(0 0 0)
(0 0 0)
(0 0 0)
(0 0 0)
(0 0 0)
(0 0 0)
(0 0 0)
(0 0 0)
(0 0 0)
(0 0 0)
(0 0 0)
(0 0 0)
(0 0 0)
(0 0 0)
(0 0 0)
(0 0 0)
(0 0 0)
(0 0 0)
(0 0 0)
(0 0 0)
(0 0 0)
(0 0 0)
(0 0 0)
(0 0 0)
(0 0 0)
(0 0 0)
(0 0 0)
(0 0 0)
(0 0 0)
(0 0 0)
(0 0 0)
(0 0 0)
(0 0 0)
(-7.47795379958 0.178807770371 0)
(-5.81026341212 0.138426620481 0)
(-6.66321138586 0.136851085004 0)
(-4.08199697029 0.0838373093718 0)
(-5.12781732526 0.122167683706 0)
(-5.94684686907 0.122138170209 0)
(-8.48258305618 0.203163756945 0)
(-5.81037585262 0.13842929932 0)
(-2.74456010512 0.0653877721389 0)
(-3.18274426922 0.0653681807929 0)
(-3.1597534294 0.0648959878528 0)
(-3.99354204763 0.0951441423892 0)
(-3.9933002776 0.0951383823392 0)
(-4.63653978449 0.0952266802635 0)
(-1.66467016308 0.0396599342484 0)
(-3.52403933361 0.0839584749937 0)
(-1.50515050464 0.0309132440388 0)
(-2.47206435227 0.050772018058 0)
(-3.11013310437 0.0740973660482 0)
(-1.32688718369 0.0272520171205 0)
(-1.88629485681 0.0449400317573 0)
(-0.786289955276 0.018732965015 0)
(-0.371436303435 0.00884928419961 0)
(-0.711528293163 0.0146135869465 0)
(-0.261770073065 0.0053763142794 0)
(-0.327754051109 0.00780857638044 0)
(-0.628123453484 0.0129005926944 0)
(-0.89102916953 0.0212283244217 0)
(-1.29642219298 0.0308866104962 0)
(-1.66470296246 0.0396607156773 0)
(-1.92623450658 0.0395615967935 0)
(-0.711639813165 0.0146158773786 0)
(-2.42213696197 0.0577062019751 0)
(-0.891054612829 0.0212289305956 0)
(-1.03390899961 0.0212347410577 0)
(-0.612375282398 0.0145895348964 0)
(-0.175458808099 0.0041802183681 0)
(-0.20402692731 0.00419036779047 0)
(-0.336079593334 0.0069025060638 0)
(-0.255272211829 0.00608173280277 0)
(-0.420904416188 0.0100278372503 0)
(-0.489642424267 0.0100564267204 0)
(-0.0380042568238 0.000908116504612 0)
(-0.13664407431 0.00325547674415 0)
(-0.0349608812351 0.000717526516095 0)
(-0.0948600143139 0.00194687814445 0)
(-0.120571739238 0.00287256139771 0)
(-0.0308629065522 0.00063342092741 0)
(-0.0430700957494 0.00102916536394 0)
(-0.00949569446896 0.000162181476491 0)
(0 0 0)
(-0.00909336729007 0.000139964459918 0)
(0 0 0)
(0 0 0)
(-0.00626076275126 5.19313415737e-05 0)
(-0.0107612511825 0.000183796520768 0)
(-0.0295999468844 0.000707294459828 0)
(-0.0645475565289 0.00153781325851 0)
(-0.0739116814797 0.00151694091903 0)
(-0.0149748186629 0.000230491339419 0)
(-0.0939085831742 0.00223732503691 0)
(-0.0203451890508 0.000486150855472 0)
(-0.0240360239965 0.000493308061745 0)
(-0.00543136156979 4.67292631671e-05 0)
(0 0 0)
(0 0 0)
(0 0 0)
(0 0 0)
(0 0 0)
(-0.00487398626442 4.04284039469e-05 0)
(0 0 0)
(0 0 0)
(0 0 0)
(0 0 0)
(0 0 0)
(0 0 0)
(0 0 0)
(0 0 0)
(0 0 0)
(0 0 0)
(0 0 0)
(0 0 0)
(0 0 0)
(0 0 0)
(0 0 0)
(0 0 0)
(0 0 0)
(0 0 0)
(0 0 0)
(0 0 0)
(0 0 0)
(0 0 0)
(0 0 0)
(0 0 0)
(0 0 0)
(0 0 0)
(0 0 0)
(0 0 0)
(0 0 0)
(0 0 0)
(0 0 0)
(0 0 0)
(0 0 0)
(0 0 0)
(0 0 0)
(0 0 0)
(0 0 0)
(0 0 0)
(0 0 0)
(0 0 0)
(0 0 0)
(0 0 0)
(0 0 0)
(0 0 0)
(0 0 0)
(0 0 0)
(0 0 0)
(0 0 0)
(0 0 0)
(0 0 0)
(0 0 0)
(0 0 0)
(0 0 0)
(0 0 0)
(0 0 0)
(0 0 0)
(0 0 0)
(0 0 0)
(0 0 0)
(0 0 0)
(0 0 0)
(0 0 0)
(0 0 0)
(0 0 0)
(0 0 0)
(0 0 0)
(0 0 0)
(0 0 0)
(0 0 0)
(0 0 0)
(0 0 0)
(0 0 0)
(0 0 0)
(0 0 0)
(0 0 0)
(0 0 0)
(0 0 0)
(0 0 0)
(0 0 0)
(0 0 0)
(0 0 0)
(0 0 0)
(0 0 0)
(0 0 0)
(0 0 0)
(0 0 0)
(0 0 0)
(0 0 0)
(0 0 0)
(0 0 0)
(0 0 0)
(0 0 0)
(0 0 0)
(0 0 0)
(0 0 0)
(0 0 0)
(0 0 0)
(0 0 0)
(0 0 0)
(0 0 0)
(0 0 0)
(0 0 0)
(0 0 0)
(0 0 0)
(0 0 0)
(0 0 0)
(0 0 0)
(0 0 0)
(0 0 0)
(0 0 0)
(0 0 0)
(0 0 0)
(0 0 0)
(0 0 0)
(0 0 0)
(0 0 0)
(0 0 0)
(0 0 0)
(0 0 0)
(0 0 0)
(0 0 0)
(0 0 0)
(0 0 0)
(0 0 0)
(0 0 0)
(0 0 0)
(0 0 0)
(0 0 0)
(0 0 0)
(0 0 0)
(0 0 0)
(0 0 0)
(0 0 0)
(0 0 0)
(0 0 0)
(0 0 0)
(0 0 0)
(0 0 0)
(0 0 0)
(0 0 0)
(0 0 0)
(0 0 0)
(0 0 0)
(0 0 0)
(0 0 0)
(0 0 0)
(0 0 0)
(0 0 0)
(0 0 0)
(0 0 0)
(0 0 0)
(0 0 0)
(0 0 0)
(0 0 0)
(0 0 0)
(0 0 0)
(0 0 0)
(0 0 0)
(0 0 0)
(0 0 0)
(0 0 0)
(0 0 0)
(0 0 0)
(0 0 0)
(0 0 0)
(0 0 0)
(0 0 0)
(0 0 0)
(-1.7203576346 -0.0626900255296 0.029197194099)
(-6.56485993173 -1.07170416901 0.346753941996)
(-2.59437176947 -0.0919147071713 0.0414104804518)
(-0.84646710315 -0.0104255118776 0.00790079387108)
(-5.38851980764 -0.614324858883 0.209679067543)
(-1.11564210477 0.0100228613792 0.00365289167118)
(-1.61240262478 -0.139299945912 0.0500861855745)
(-1.77882578684 0.0156654102444 0.00748738593332)
(-3.71444753307 0.0429861198794 0.0127846504437)
(-2.6808143249 0.0101026052124 0.0127951464125)
(-1.52832792509 0.0313892690292 0)
(-4.18054845866 -0.167071718729 0.0752465657055)
(-1.886474933 0.0449443219824 0)
(-1.36223955823 0.027978095063 0)
(-0.612421669992 0.0145906400576 0)
(-0.175467298835 0.00418042065563 0)
(-0.342469284283 0.00703373950195 0)
(-0.208888965048 0.00429022581705 0)
(-0.255300320333 0.00608240247381 0)
(-0.499198529207 0.0102526929431 0)
(-0.443450865659 0.00562534659411 0.00137363248231)
(-0.786394118986 0.0187354466633 0)
(-0.371440311801 0.00884937969692 0)
(-0.722770746698 0.0148444879153 0)
(-0.26338574841 0.00540949751661 0)
(-0.891106089783 0.0212301570083 0)
(-0.32780006801 0.00780967271009 0)
(-0.643239371705 0.0132110480724 0)
(-1.66461148433 0.0396585362566 0)
(-3.52422010411 0.0839627817604 0)
(-2.49472456133 0.0512374204018 0)
(-1.49863269939 0.0307793793498 0)
(-3.1100989987 0.0740965534976 0)
(-1.88632478711 0.0449407448317 0)
(-1.32330007778 0.0271783440361 0)
(-1.29647856332 0.0308879534915 0)
(-1.66462032624 0.0396587469105 0)
(-1.92071123099 0.0394481580606 0)
(-0.713147917262 0.0146468512844 0)
(-2.42198355925 0.057702547232 0)
(-0.891100561579 0.0212300253016 0)
(-1.03877155947 0.0213346098079 0)
(-0.786315717129 0.0187335787782 0)
(-0.371448173969 0.00884956700914 0)
(-0.709921855029 0.014580593426 0)
(-0.264129519737 0.00542477332089 0)
(-0.891041903375 0.0212286277992 0)
(-0.32780336246 0.00780975119871 0)
(-0.626476031002 0.0128667574247 0)
(-0.612412620656 0.0145904244617 0)
(-0.175458331496 0.00418020701325 0)
(-0.337554741846 0.00693280311769 0)
(-0.203698741007 0.00418362739923 0)
(-0.420906289549 0.0100278818823 0)
(-0.255288923926 0.00608213096012 0)
(-0.491560761395 0.0100958261185 0)
(-0.28928389762 0.00689204420984 0)
(-1.00967580541 0.0240550211945 0)
(-0.432029801553 0.00887316095388 0)
(-0.430823691174 0.00884838948792 0)
(-0.540441478415 0.0128757479856 0)
(-0.540467509694 0.0128763681679 0)
(-0.231112652121 0.00474666273802 0)
(-0.136646482767 0.00325553412441 0)
(-0.106417836925 0.0025353517525 0)
(-0.203904601795 0.00418785543141 0)
(-0.0449213658943 0.000921952480306 0)
(-0.255283172105 0.00608199392585 0)
(-0.0553034289575 0.00132148240211 0)
(-0.107831520817 0.00221310140716 0)
(-0.136642495704 0.00325543913464 0)
(-0.106424260345 0.00253550478727 0)
(-0.203829116756 0.00418630509646 0)
(-0.0450245223658 0.00092406963242 0)
(-0.255285745545 0.00608205523678 0)
(-0.0553069866673 0.00132156741403 0)
(-0.107597032988 0.00220828885012 0)
(-0.0645460354834 0.00153777702036 0)
(-0.00949728588163 0.000162208656984 0)
(-0.0212531634497 0.000436193476461 0)
(-0.0212166932977 0.000435444974129 0)
(-0.0261235673782 0.000624225933571 0)
(-0.0261250440182 0.000624261218068 0)
(-0.0510052261681 0.00104681578216 0)
(0 0 0)
(-0.0380092846898 0.000908236646103 0)
(-0.00908798970811 0.00013988168856 0)
(-0.0149709763934 0.000230432199481 0)
(-0.0107612022935 0.000183795685768 0)
(-0.020344959519 0.00048614537078 0)
(0 0 0)
(0 0 0)
(0 0 0)
(0 0 0)
(0 0 0)
(0 0 0)
(0 0 0)
(0 0 0)
(0 0 0)
(0 0 0)
(-0.00552110095813 4.57960461226e-05 0)
(0 0 0)
(-0.0083808921011 0.000143141237296 0)
(0 0 0)
(0 0 0)
(0 0 0)
(0 0 0)
(0 0 0)
(0 0 0)
(0 0 0)
(0 0 0)
(0 0 0)
(0 0 0)
(0 0 0)
(0 0 0)
(0 0 0)
(0 0 0)
(0 0 0)
(0 0 0)
(0 0 0)
(0 0 0)
(0 0 0)
(0 0 0)
(0 0 0)
(0 0 0)
(0 0 0)
(0 0 0)
(0 0 0)
(0 0 0)
(0 0 0)
(0 0 0)
(0 0 0)
(0 0 0)
(0 0 0)
(0 0 0)
(0 0 0)
(0 0 0)
(0 0 0)
(0 0 0)
(0 0 0)
(0 0 0)
(0 0 0)
(0 0 0)
(0 0 0)
(0 0 0)
(0 0 0)
(0 0 0)
(0 0 0)
(0 0 0)
(0 0 0)
(0 0 0)
(0 0 0)
(0 0 0)
(0 0 0)
(0 0 0)
(0 0 0)
(0 0 0)
(0 0 0)
(0 0 0)
(0 0 0)
(0 0 0)
(0 0 0)
(0 0 0)
(0 0 0)
(0 0 0)
(0 0 0)
(0 0 0)
(0 0 0)
(0 0 0)
(0 0 0)
(0 0 0)
(0 0 0)
(0 0 0)
(0 0 0)
(0 0 0)
(0 0 0)
(0 0 0)
(0 0 0)
(0 0 0)
(0 0 0)
(0 0 0)
(0 0 0)
(0 0 0)
(0 0 0)
(0 0 0)
(0 0 0)
(0 0 0)
(0 0 0)
(0 0 0)
(0 0 0)
(0 0 0)
(0 0 0)
(0 0 0)
(0 0 0)
(0 0 0)
(0 0 0)
(0 0 0)
(0 0 0)
(0 0 0)
(0 0 0)
(0 0 0)
(0 0 0)
(0 0 0)
(0 0 0)
(0 0 0)
(0 0 0)
(0 0 0)
(0 0 0)
(0 0 0)
(0 0 0)
(0 0 0)
(0 0 0)
(0 0 0)
(0 0 0)
(0 0 0)
(0 0 0)
(0 0 0)
(0 0 0)
(0 0 0)
(0 0 0)
(0 0 0)
(0 0 0)
(0 0 0)
(0 0 0)
(0 0 0)
(0 0 0)
(0 0 0)
(0 0 0)
(0 0 0)
(0 0 0)
(0 0 0)
(0 0 0)
(0 0 0)
(0 0 0)
(0 0 0)
(0 0 0)
(0 0 0)
(0 0 0)
(0 0 0)
(0 0 0)
(0 0 0)
(0 0 0)
(0 0 0)
(0 0 0)
(0 0 0)
(0 0 0)
(0 0 0)
(0 0 0)
(0 0 0)
(0 0 0)
(0 0 0)
(0 0 0)
(0 0 0)
(0 0 0)
(0 0 0)
(0 0 0)
(0 0 0)
(0 0 0)
(0 0 0)
(0 0 0)
(0 0 0)
(0 0 0)
(0 0 0)
(0 0 0)
(0 0 0)
(0 0 0)
(0 0 0)
(0 0 0)
(0 0 0)
(0 0 0)
(0 0 0)
(0 0 0)
(0 0 0)
(0 0 0)
(0 0 0)
(0 0 0)
(0 0 0)
(0 0 0)
(0 0 0)
(0 0 0)
(-0.0296029250374 0.000707365623168 0)
(-0.0645510485833 0.00153789645496 0)
(-0.0756414262377 0.00155244167548 0)
(-0.0151779747017 0.00023361830266 0)
(-0.0939217242183 0.00223763811571 0)
(-0.0243625135155 0.000500008833547 0)
(-0.0203457793044 0.000486164959655 0)
(-0.0380110281022 0.000908278305162 0)
(-0.136646547153 0.0032555356584 0)
(-0.0955193136733 0.00196040940441 0)
(-0.03542708445 0.000727094729389 0)
(-0.120594249645 0.00287309769691 0)
(-0.0430718694613 0.00102920774701 0)
(-0.0313823971908 0.000644082795615 0)
(-0.00543177564958 4.6732825744e-05 0)
(0 0 0)
(0 0 0)
(0 0 0)
(0 0 0)
(-0.0049268084401 4.08665496739e-05 0)
(0 0 0)
(-0.00949720377788 0.000162207254695 0)
(0 0 0)
(-0.00920541681233 0.000141689118162 0)
(0 0 0)
(-0.0107618411218 0.00018380659662 0)
(0 0 0)
(-0.00634943407524 5.26668463351e-05 0)
(-0.038010018738 0.000908254186278 0)
(-0.136648118655 0.00325557309863 0)
(-0.0957773455881 0.00196570517312 0)
(-0.0349853887508 0.00071802950091 0)
(-0.120595848876 0.0028731357978 0)
(-0.0430711736699 0.00102919112098 0)
(-0.03086685139 0.000633501890064 0)
(-0.0296025041005 0.000707355564829 0)
(-0.0645478391993 0.00153781999299 0)
(-0.0739144106115 0.0015169969309 0)
(-0.0150643830188 0.000231869907588 0)