/*--------------------------------*- C++ -*----------------------------------*\
| =========                 |                                                 |
| \\      /  F ield         | OpenFOAM: The Open Source CFD Toolbox           |
|  \\    /   O peration     | Version:  v1906                                 |
|   \\  /    A nd           | Web:      www.OpenFOAM.com                      |
|    \\/     M anipulation  |                                                 |
\*---------------------------------------------------------------------------*/
FoamFile
{
    version     2.0;
    format      ascii;
    class       volScalarField;
    location    "2";
    object      p;
}
// * * * * * * * * * * * * * * * * * * * * * * * * * * * * * * * * * * * * * //

dimensions      [1 -1 -2 0 0 0 0];


internalField   nonuniform List<scalar> 
28582
(
17106.4617365
17107.3569275
12208.0081674
12209.0058769
7308.63519401
7310.02878421
3633.30535594
3634.44630103
-0.690162740969
1.02295729706
-26.9567749983
3633.68457356
600.911416799
602.861206191
3635.75247167
3635.87945881
603.472249476
1798.99349297
1799.04699984
17105.3683876
17108.7842975
17110.3191974
12206.8053879
12210.7044139
12212.6322453
7307.2588092
7312.41150021
3632.13233137
3637.30550938
1.73576714069
-26.9640303522
-26.9648807093
3631.78339594
3632.67617324
599.156360231
600.563680913
1795.50986624
3639.24703989
3637.36499912
3639.15274704
1799.80358949
609.445232437
1799.81007209
1801.50604941
-0.0611981055055
0.802031689217
-23.3081006709
-23.2842194462
0.510108690203
-23.2709091756
1795.03440067
1795.59103955
601.36593313
601.430653745
1795.85554979
602.074926324
1795.66686122
1795.79414841
1796.12643399
601.975876866
602.472006719
1796.38415284
602.199781755
1795.82581511
1797.47959594
1796.73764762
603.791988646
602.907246914
1796.84459278
603.974283108
1797.38713102
1798.94511364
605.435352852
605.086650182
1798.34363806
604.314614378
604.915672559
1798.07700016
1798.88804227
604.997194608
604.981857452
1798.34760997
604.110033637
1798.1965139
604.647983469
-1.23670319194
-23.250667536
-1.57992214125
-0.754412271878
-23.279888425
-23.2801149398
1.25436687765
-23.3092937411
-23.3048290337
2.45526074888
-23.3124988979
2.69153216054
-23.3272628457
1793.87768465
1793.51378066
599.670315159
600.824810514
1794.19779656
1795.37814463
600.474278935
1793.25192677
1793.14195132
601.372192928
600.249736078
1794.12424311
1794.07680084
599.156019823
601.021677624
600.851162855
1794.72626747
1793.77424261
600.128588322
1794.58286953
599.302750682
1799.93508482
606.496077661
605.70180886
1800.90608408
607.032619836
1800.77250673
606.989444462
1802.01056172
1803.06944465
607.897814014
609.04123904
1801.75897946
1802.90683419
608.310343819
1800.73832785
1799.80694435
605.455025912
605.84008635
606.445634695
1800.83770758
606.656730967
607.23799228
608.697174859
1802.46413994
1801.8922874
608.924823006
1802.79006709
608.036935312
7315.37300055
3641.40621624
4.19674821904
-26.9871715698
3632.65926974
600.58312979
3641.19518016
3643.53174005
611.135682181
610.219569401
615.923172093
3645.68092781
3647.60059554
618.143158108
624.662048979
-0.308156315587
4.18161262816
6.41180349046
-23.336036144
-23.3072707366
-23.3043182822
8.71607303075
11.0458189368
1794.43526095
1794.59270159
601.603924414
601.37099036
1794.7553979
601.62160965
1795.31636503
1805.60453285
1804.41306822
612.414261515
610.209408536
1805.75620154
1803.99422966
612.284827953
1805.27727292
1803.62838297
609.892806912
611.785031837
1803.72347438
612.032103619
1804.99046768
1806.87501271
1807.97026086
615.905507474
613.44807287
1808.37015555
614.215487126
1806.29946031
1811.7750335
1809.68514335
618.014278721
620.13185869
1809.95147285
620.37880877
1811.41084068
1813.4163412
1814.69342471
624.913259222
622.336219811
1814.80381456
622.599833076
1813.12793656
3654.4768791
3649.06501961
3644.88922297
3642.61281158
-10.2363555233
-8.97392116219
-8.58409943586
-6.95551637955
-5.72775305915
-26.8524869084
-26.7842293059
-26.8614169847
-26.8754713809
-26.9411903073
-26.9789933162
3656.85155646
3655.82144204
603.967175771
603.585594675
3657.54256463
604.290489796
3653.99848794
3651.97220179
603.621251024
603.604557549
3654.27491048
3651.44387708
3650.2079431
604.060807354
605.015245442
603.987307729
604.098572488
3647.43835297
3643.14566307
606.877430855
607.597561621
606.327961321
606.364430162
3647.44053908
3645.68780535
603.81349403
603.775116394
603.640640669
3641.45635673
3643.27951824
3640.31138823
605.907080252
605.644786089
604.918951572
603.913822373
604.232298899
603.372597721
-10.2648723237
-10.2084462754
-10.6505126197
-23.2751854529
-23.3279350566
-23.3000013188
-23.3370573227
-23.3558730852
-23.3104750439
-23.3390760786
-23.3109685479
-9.70489363153
-8.96712045736
-10.0195577634
-9.54484975345
-9.26161613003
-23.3227229607
-23.3305991973
-23.3307224
-23.3131268706
-6.8620450258
-8.11353622751
-6.13400771802
-23.3195544737
-23.3079015915
-23.2998760882
-23.2881819245
-8.19168048635
-7.26016142124
-23.3305015099
-23.3129986894
-23.3097843475
-5.11619240687
-6.0313937851
-4.27237334268
-23.3042753322
-23.2886249463
-23.2949597564
-23.2680164067
1818.34605414
1819.34906779
602.449891888
602.717263778
1819.14531439
604.259206739
1818.28870541
1817.98330603
1817.93386131
602.543712234
601.818469771
1818.66423169
1817.00118303
604.346967271
1821.04249266
1819.01823215
602.725598992
603.60539797
1819.64154123
1819.65943656
604.308903326
1815.87815234
1817.00044915
601.846766008
601.813414889
1816.20166493
1815.67676844
604.606238904
1814.87872986
1813.85730694
601.422532171
601.341865361
1814.54725714
1813.55469345
604.355308412
1816.7009335
1817.72137548
602.746862793
601.164293792
1817.9503922
1815.85903969
603.387242821
1816.95315431
1818.57488021
602.473087437
602.619818901
1818.13012721
1815.71400489
604.666176432
1815.20237664
1813.97700338
600.81304878
600.971449885
1814.57505437
1813.12742849
603.242840818
1815.19511693
1812.88683968
601.858788265
599.882198178
1813.78374101
1812.35821655
604.62003331
1814.20846467
1818.15207467
603.028527909
600.585311655
1815.15177402
1814.12327838
606.200901097
1811.93919261
1808.90988873
599.135267457
599.866561208
1811.0518199
609.632677784
1805.88041693
1812.18542381
1812.09384094
599.870995075
600.570420414
1812.1060818
1808.98328235
605.672553084
1809.88701702
1805.45812589
599.541433533
597.10576494
1805.75236906
608.952363518
1804.80490466
1811.21661475
1812.65306691
600.544558065
600.069145419
1811.72355783
1811.03272351
603.33453596
1810.77987964
1811.19690583
599.365595446
599.740563695
1810.82269587
1808.79446005
604.439579957
1809.61789408
1807.72992285
599.399234976
598.5209895
1807.73743619
1808.06947041
604.069045784
1807.37728174
1810.46836642
600.12562639
597.783939729
1807.49005804
1807.12912847
604.804908706
1805.99559554
1804.42905153
596.879226804
598.739594979
1804.51824658
607.095839643
1802.24770305
1806.09004285
1806.62725125
597.649900274
598.608408726
1806.18380185
1804.32615298
604.249806015
1804.95404705
1801.8549464
598.90109607
596.849323769
1803.30384688
606.127333726
1801.74995238
1804.3630106
1806.02774123
598.473480062
597.732170348
1803.86893728
1805.29510574
603.714247143
1801.28098361
596.995339146
1802.61156997
17105.4775945
17106.7105252
17108.3552428
17111.6700404
17112.2729755
17111.649913
12207.0178508
12208.3731775
12210.3132807
12214.3152988
12215.0486693
12214.1079302
18318.5382651
18324.5056048
17103.4007158
17106.4081064
17108.813505
17110.6620026
17111.9150979
17111.3735603
18321.0953606
18325.5814471
17104.7002479
17107.0170999
17109.076958
17110.8453769
17112.0199896
17111.4161094
17101.1327957
17102.688771
17105.1343535
17107.3332339
17109.3540891
17111.0993487
17112.1481918
17111.4769077
17103.5876548
17104.2703266
17106.0057498
17107.8939115
17109.7213791
17111.3166881
17112.2003717
17111.574573
17110.0335982
17111.510501
17112.2542877
17111.6051209
13417.9908597
13424.7261279
12203.8571653
12207.8119703
12211.0246676
12213.3777998
12214.7419188
12213.9969986
13421.601271
13426.2334247
12206.5730191
12208.9813967
12211.4246113
12213.6143192
12214.9092687
12214.0665052
12202.2606542
12204.0992337
12206.5844958
12209.1695125
12211.6838753
12213.811415
12215.0614762
12214.1544085
12204.9995913
12205.7816957
12207.637382
12209.8306905
12212.0893769
12214.0495676
12215.1131425
12214.2299915
12212.4036504
12214.2177535
12215.1125799
12214.1876997
8517.76472665
8524.71863114
7305.75740504
7309.5959741
7313.62026761
7317.26651854
7319.12844686
7317.09726339
8521.17171125
8526.83855961
7307.28607398
7310.33484897
7313.98228776
7317.49686812
7319.32795965
7317.19685713
7302.50664295
7304.69887154
7307.65327966
7310.83215305
7314.46420194
7317.73973192
7319.4527702
7317.53604045
7306.89782286
7305.3994608
7306.37318727
7308.70503796
7311.5558001
7314.90765821
7317.93041746
7319.44082454
7317.59532786
7307.60510717
7309.41443258
7312.08436842
7315.24864912
7318.06486116
7319.25852052
7317.20949356
7317.92961576
7318.93446733
7316.7828011
3617.66311284
3625.5478847
3630.60716081
3634.37914366
3638.88186954
3644.76399128
3648.80724576
3646.43170467
3618.42076109
3621.37919922
3626.9453231
3630.99018232
3634.63102311
3639.21658882
3645.17672272
3649.20700951
3646.31194283
3637.28060757
3627.48746227
3626.23086798
3629.02487755
3631.8752918
3635.23316335
3639.93967639
3645.51991803
3649.30531275
3647.07201889
3631.22921171
3629.67232851
3630.79969009
3632.97600573
3636.11810976
3640.62885193
3645.73416006
3649.25272123
3647.40719998
3631.93141811
3633.66688477
3636.88101557
3641.16903866
3646.09344899
3649.25443952
3646.47825927
3646.08097927
3648.74272566
3644.89708253
2.24275617342
3.21573353817
3.09123339874
5.1426205669
8.30811020429
12.6150926273
17.1817663609
22.4697881152
-4.2476792512
0.0437789218146
2.188676523
3.02723264638
3.4626488288
5.05430679924
8.16597120898
12.1926637296
16.9777599781
21.9657184678
-2.98932854141
0.455201732573
1.3625887683
1.32046641461
1.94708405371
4.14822799768
7.39495869364
11.0988788201
15.2160239459
20.7905243866
-0.494135376306
-0.284001837074
-0.0301143152712
0.927319978949
2.97988212716
6.35231555261
10.0487935186
13.8943858772
19.3396802881
0.00525380671701
1.15627094117
2.59759735404
5.37410949558
9.03717290058
13.6855851042
19.4595826883
8.56427811253
14.1879919214
19.9052994256
-26.9726995367
-27.0243467389
-27.0365452989
-27.0378642034
-26.9972944414
-27.0184444917
-27.0329552812
-27.0846330227
-27.1782662855
-27.4465325855
-26.9831682034
-27.0199426682
-27.0379066962
-27.0300552048
-27.0000306392
-27.0011968483
-27.0188921579
-27.0636711924
-27.1780544598
-27.4197508847
-27.0378330335
-27.0369747713
-27.0221541518
-26.9865590383
-26.966890845
-26.9790363197
-26.9941534377
-27.0468288467
-27.1191010512
-27.3474601662
-26.9808808549
-26.9738256331
-26.9581436348
-26.9460209182
-26.9686226039
-26.9894266917
-27.0375076501
-27.0767247595
-27.3173905471
-26.9740084256
-26.9606811006
-26.9823375257
-26.988219778
-27.0309080139
-27.1332105253
-27.3456390991
-27.0358165504
-27.1791445791
-27.41042315
18321.6577245
18319.2581193
18322.6464236
15868.4919154
15872.1630349
15869.2302449
15872.842202
18325.8556431
18324.9813804
18326.2705529
15874.9926932
15876.4430997
15875.2899212
15876.8914497
18323.6895061
18322.8643407
18324.5531602
15871.4389752
15874.1392445
15873.4561665
15875.3640925
18326.7226147
18326.1612269
18327.5079214
15876.1856737
15877.2769015
15876.8696944
15878.1466279
13421.799571
13418.6431146
13422.4544198
10968.3092188
10972.189593
10968.7359109
10972.7617106
13426.7806854
13425.0773883
13427.5044058
10974.5740737
10976.8863099
10975.5013928
10977.7247578
13424.060678
13423.9260716
13425.6709748
10971.5250909
10974.3135759
10974.2785179
10975.8059385
13427.8256238
13427.3162114
13428.7803549
10976.6488218
10978.438925
10977.5388577
10979.1575907
8521.97316073
8518.88206748
8522.6074442
6067.74939004
6072.40206189
6069.09262487
6073.11493347
8527.2857975
8525.66305484
8528.0865198
6075.59980292
6078.31686892
6076.06034665
6079.16513517
8524.34179003
8524.02787153
8525.84871927
6071.49838915
6074.75688586
6074.04589902
6076.50907308
8528.58446217
8527.69138112
8529.39296388
6077.06762641
6079.03572691
6078.32110243
6079.78359769
3613.75643402
3616.2451864
595.058898094
596.120915852
3622.2028737
3619.26736066
3623.03512162
598.293528013
600.875242384
599.236033425
601.271173339
3628.30217023
3626.01361455
3628.38148358
601.973283726
603.902822803
602.391145054
604.068014389
3632.47585537
3630.55413774
3632.46519665
604.415419591
606.514450046
604.689616593
606.633946881
3636.34626072
3634.37604464
3636.47731321
607.62949987
611.148256716
607.580927343
611.282482531
3641.81002477
3638.95320686
3641.94959855
612.802995116
618.923455162
612.966350163
619.110758244
3647.21786566
3644.96926151
3647.49781263
621.283694552
628.335471407
621.456548353
628.967619055
3648.64435603
3649.04171219
3648.5859416
630.698795951
636.048387205
631.667764677
634.880380193
3642.06384899
3646.28762341
3642.427039
635.184366969
613.941345434
633.32002141
617.634826696
3637.16976626
3629.74703897
611.125777559
598.065728872
608.746014642
600.494188811
3618.71065036
3623.6264123
3622.45094361
599.917396799
596.747437583
602.170839695
599.090891512
3624.54938487
3623.91935696
3626.12297254
599.459548743
601.085429604
600.450469949
601.41739342
3628.84703474
3627.9902392
3629.58223366
602.419512724
603.824927405
601.986966479
603.027138483
3632.93395973
3631.33951286
3633.07048808
604.543597564
606.457173974
603.562954512
606.038326428
3636.76665216
3634.895568
3637.06571226
607.44867756
611.202966749
607.220961601
611.295647104
3642.24535305
3639.61990301
3642.56907375
612.902016988
619.077412185
613.035352062
618.910422886
3647.7578569
3645.44256534
3647.88520417
621.41640329
629.009049124
621.111207172
627.912236209
3648.67008996
3649.2939395
3648.89413911
631.773766983
634.524679748
630.656402795
634.450396463
3642.53402924
3646.62471327
3642.80412496
632.810002159
617.750410851
632.746055469
617.737385941
3632.059213
3636.60835992
3632.69083885
607.951322342
600.706291396
605.056121254
601.474123732
3625.90515541
3629.90662258
3628.27250328
602.396179088
599.510106661
602.024889452
600.922730169
3627.63704494
3628.03521185
3628.88207331
600.827017982
601.330079494
600.611018907
601.558253338
3630.43470737
3629.99096017
3631.22956704
601.887641248
602.772024152
601.190561051
602.641335059
3633.46851399
3632.53237012
3634.01396331
603.312276344
605.761740648
602.969463293
605.296307499
3637.42390938
3635.72941882
3637.88091828
607.126159709
611.089117675
606.466508941
610.799648679
3642.80314059
3640.33805744
3643.09534216
612.902751552
618.671281829
612.650693453
618.19142251
3647.88678823
3645.66896126
3647.87323671
620.813207308
627.244555601
620.176478205
625.80884779
3649.07192529
3649.26078915
3649.17026376
629.687884176
634.293478032
627.934942639
633.219282343
3643.26604345
3647.36727456
3643.73057573
633.041451428
617.81372675
632.962622662
617.814259834
604.062666872
601.331046683
3630.0495376
3631.82790509
601.663466281
600.725602265
600.955647137
3630.05775979
3631.07475584
3631.00449612
600.169996003
601.113995834
599.317668978
600.715724083
3631.77725728
3631.35321442
3632.16498804
600.914606998
602.414723457
599.86316182
602.432376304
3634.420749
3633.29663622
3634.78979307
602.751228003
605.047914515
602.659968581
605.421668617
3638.2442318
3636.5341096
3638.62791826
606.294908863
610.639065355
606.74419233
610.475193827
3643.28563384
3640.93069403
3643.53238262
612.45223488
617.936650324
612.144177726
617.391025377
3647.89002951
3645.95136021
3647.99781254
619.877842084
625.464582563
619.375943618
625.215350589
3649.13727747
3649.25447485
3649.00382743
627.500474693
632.833985479
627.452201626
632.434758794
3643.84632028
3647.05629345
3643.48459944
632.757438922
617.791769093
631.875246888
616.833858894
3632.65398704
3633.18193802
599.763817056
602.432810834
602.810635139
3635.13727002
3634.14885825
3635.501296
602.828216583
605.539653306
603.482513472
605.656783957
3638.95068565
3637.15007536
3639.17995987
606.77957748
610.393585927
606.717092741
609.830485319
3643.7022655
3641.40868406
3643.91860709
611.974689159
617.17224399
611.393367209
616.546241767
3648.16823129
3646.23172901
3648.19948669
619.150848215
625.410146981
618.725639743
625.793928929
3648.70421209
3649.05881625
3648.08746245
627.85872614
632.397209281
628.621925563
631.226459906
3642.89544451
3645.5483875
3642.21053071
631.413326964
616.676347457
629.815419886
616.190046391
3643.87350319
616.33762327
3648.07125618
618.607891906
625.648175174
3647.57403035
628.381643596
630.742138327
3641.62552628
629.336314915
616.015253089
-23.2930632877
-23.2917599785
-23.3154963718
-23.3057529755
1.63865230502
1.47109765385
-23.2687098276
-23.2408281286
-23.2564612443
-23.2331562288
2.69798439962
2.35533937148
2.84003852611
-23.2408246184
-23.2491258267
-23.2404190646
-23.2574749643
3.14220686613
3.27699876938
3.48036751913
-23.2685336748
-23.279184794
-23.2670524558
-23.2764628487
3.81522934009
3.5516822572
4.12762295811
-23.2702191034
-23.2638267313
-23.2726089868
-23.266884142
6.65087282262
5.18076653791
6.64542111524
-23.2700008554
-23.2848768014
-23.2707570814
-23.2847201664
10.405138281
8.39425203985
10.3478227554
-23.2973267715
-23.3118970009
-23.3056405907
-23.3307684323
14.8918794256
12.454111457
14.7267038095
-23.3238052965
-23.3419640869
-23.3501642974
-23.3598087639
20.3415514554
17.1829023731
20.5907323527
-23.3462278436
-23.3410235373
-23.3498733948
-23.338632178
22.7695650549
22.2258507013
22.2841709421
-23.3582258173
-23.3181990587
-23.3555989945
-23.3166277992
-1.88593460425
-3.74681889883
-1.49930799533
-23.3033707517
-23.2860759462
-23.2752071911
-23.2726422713
1.37085743755
0.162405467593
1.31814550316
-23.2675524863
-23.2426843197
-23.2584090933
-23.2512356198
2.51319619839
1.68165265454
2.09033345416
-23.2453061938
-23.2548862787
-23.2445958648
-23.2704749792
3.14875021576
2.13186183931
2.4109733923
-23.2713601747
-23.2765010853
-23.2771259055
-23.2836786946
4.00287930787
2.77544125519
3.58696389112
-23.2764869784
-23.2642229291
-23.2770750226
-23.2760108394
6.44228873277
4.63727106889
6.15252388329
-23.267469337
-23.2715822642
-23.2819979331
-23.2970056729
10.1343901937
7.77752708576
9.67083424784
-23.2940537756
-23.3185792256
-23.3118889393
-23.3344671993
14.3240259636
11.5789334616
13.6138421191
-23.3458263248
-23.3524384758
-23.3487921341
-23.3519330231
20.4683118271
16.1164808127
19.8106828288
-23.3444188582
-23.3294624165
-23.3477669286
-23.3318246983
21.905575171
21.5417093256
21.4530123974
-23.3442687389
-23.3119229212
-23.3431426315
-23.3111617292
-1.07446945045
-2.42593759734
-0.663415298008
-23.2724816607
-23.2568468725
-23.2313985721
-23.2515928163
1.03062714634
0.125382918924
0.71153378173
-23.2612064946
-23.256465897
-23.2640972488
-23.2766147417
1.31943477816
0.59702098328
0.508685449372
-23.2637524972
-23.2792781308
-23.280633288
-23.295586408
1.45657795437
0.40784292619
0.604279196021
-23.295360249
-23.2989919748
-23.2999158272
-23.2983993314
2.81281535384
1.11931234925
2.02561778446
-23.2902122562
-23.2822515895
-23.2852000699
-23.2779587537
5.64068301573
3.36496275754
5.01153029496
-23.2928649415
-23.3012550312
-23.2849345072
-23.298881741
9.2315997332
6.76873382866
8.65244904826
-23.3164334393
-23.3315340826
-23.312030161
-23.3253022156
12.9860794842
10.5262549739
12.3175065478
-23.3446725941
-23.3500331959
-23.3358791285
-23.3399764731
18.7025969576
14.4609429782
17.6126640027
-23.3429811336
-23.3312658788
-23.3397180793
-23.3243591757
21.0040662127
19.9312455995
20.4809485398
-23.3322531297
-23.2993175178
-23.3316219657
-23.3006425344
-0.369070608799
-1.50925499867
-23.2857610572
-23.2983751835
-23.3028972857
-0.296213383087
-1.03118321002
-0.53689612011
-23.2996439482
-23.3067452452
-23.2985822757
-23.2966271691
0.333081563629
0.0182873224938
0.561606996464
-23.3057796591
-23.2942769301
-23.2894956888
-23.2844028171
1.69749418698
1.15400317046
1.74726321286
-23.2858977394
-23.2787239852
-23.2825784836
-23.2834181245
4.60231861201
2.80568977004
4.22609919775
-23.2886899896
-23.3004454642
-23.2907633255
-23.302269332
8.20441029894
5.86947477882
7.65734711688
-23.3130576741
-23.3246392361
-23.3163083592
-23.3292598246
11.8305425472
9.50521151542
11.3579659569
-23.3353612803
-23.3373131118
-23.3367301788
-23.3365434935
16.9284164287
13.556415941
16.8496584478
-23.3298476837
-23.3158554694
-23.3276668943
-23.3128683803
20.08060994
19.2059816684
19.7907658135
-23.3245117402
-23.2949191712
-23.3252613945
-23.2973672378
0.641571871509
0.226710512005
-23.2765959729
-23.2780388524
-23.2537556387
-23.2604378872
1.80131431837
0.807990046387
1.47018544196
-23.2793655131
-23.2850278992
-23.2695728828
-23.2830936065
3.85637023607
2.26057936351
3.30769578794
-23.2911127563
-23.3080941232
-23.2990606883
-23.3190133722
7.10711414457
4.63671662577
6.38317963767
-23.323794909
-23.3349746826
-23.3312527005
-23.3366363374
11.1569919334
8.5641738051
11.0338223519
-23.3389129716
-23.3354619676
-23.3295632249
-23.3198984153
17.3577722358
14.1473259623
17.9721226998
-23.3304271246
-23.3269152416
-23.3246419939
-23.3222257474
19.7165566516
19.8037121706
19.8904010823
-23.3337084609
-23.304440702
-23.34049176
-23.3160168166
6.14346491704
-23.3221371889
11.1708938692
-23.312278716
-23.312184555
-23.3060902849
-23.3091467425
18.0271336508
-23.3208736819
-23.3240382809
-23.323738734
-23.3303216921
20.1271004286
-23.3519561575
-23.3274151492
-23.3571987672
-23.3283312751
1777.74456982
1777.88851308
590.23879712
594.423481482
1778.29614315
596.323369056
1775.83090151
1778.68912106
1780.47343011
595.074781799
591.39884598
1779.35836098
1779.05543335
596.732954213
1782.66351929
1780.42274014
598.071895738
595.567721975
1779.77349825
598.450122474
1782.62037319
1784.84689241
1786.68140361
599.25120964
600.552559506
1786.53378497
600.031497471
1784.55616325
1783.25986911
1782.67695747
596.233071685
598.930342974
1780.87591967
1784.24011054
598.804128126
1785.47217522
1787.37596174
600.959522479
599.717560133
1786.942581
1785.70532145
600.568786147
1789.48269505
1788.20626412
602.595304784
601.35727951
1787.92725806
602.547426079
1789.47721723
1790.80552719
1792.04922179
603.085632265
603.961276263
1791.88937766
603.443341027
1790.6795145
1789.66234454
1788.71613413
601.601237459
602.647507663
1788.21915829
1789.72399571
602.714073607
1790.83199615
1791.9002758
604.020140226
603.093198364
1791.86446469
1790.64201381
603.58080247
1794.04397605
1793.30245853
604.995537327
604.485068845
1793.04598196
605.045668054
1794.11995225
1794.95500133
1795.94785637
605.61226433
606.602106308
1795.65865485
605.823943273
1794.97090104
1793.87571706
1792.99023546
604.536513666
605.173605055
1792.9263303
1793.76483406
605.115756591
1794.802476
1795.63149191
606.611956643
605.780912875
1795.56958684
1794.63831444
605.80035082
1797.56507415
1796.71717764
608.518539558
607.630746677
1796.52905071
608.623064831
1797.41130395
1798.52956073
1799.73548205
609.706722285
611.286197212
1799.66464353
609.938330479
1798.39850807
1797.54722409
1796.55384436
607.544990116
608.612968239
1796.49600838
1797.44408189
608.601894429
1798.56640129
1799.91195016
611.281191134
609.939957139
1799.71744768
1798.57587502
609.931807616
1802.82174019
1801.23842075
614.514952661
612.824062952
1801.1216543
614.613950896
1802.7281694
1804.63634301
1806.61059947
616.650071808
619.063104183
1806.57513799
616.800463871
1804.59560451
1802.90863241
1801.2946044
612.924314394
614.866271245
1801.14984791
1802.89613761
614.723184197
1804.75750349
1806.96214481
619.129274582
616.944732912
1806.67747873
1804.86133945
616.850640365
1810.7819632
1808.54649045
623.711805888
621.4410937
1808.64100092
623.711047399
1810.54423295
1812.77208487
1814.60077612
626.128106331
628.587241336
1814.65547748
626.164433479
1812.60217124
1810.96203958
1809.01433196
621.489112067
623.901295169
1808.77590105
1811.09498148
623.784768444
1812.97297998
1815.08319201
628.74479916
626.326059712
1814.85371139
1813.23084127
626.289493252
1817.23111844
1816.19488018
633.434251191
630.918495229
1816.19231464
633.28902995
1817.1520355
1816.71133091
1815.0184831
635.425417297
635.418198922
1814.42951008
635.67671403
1816.83001977
1817.26635972
1816.60408153
631.215988816
633.810898126
1816.42083445
1817.17678205
633.593408523
1816.45387174
1813.61442208
634.948923292
635.067149334
1813.94061145
1816.11323512
635.661744541
1806.22678657
1811.4627293
632.148995379
633.167348094
1810.51194604
631.577277784
1806.70583031
1802.70989179
1800.41252633
629.258484015
617.335728337
629.219637147
1802.50336544
1802.09214885
1806.07592851
1810.19413501
632.451016823
630.692042852
1810.1060753
1806.5110536
631.004870654
1803.07616634
1803.48389238
617.423738153
628.978353297
1803.47691828
628.870487617
1803.32007057
1797.15440894
1804.52568192
596.638816273
593.686288672
1795.74503302
604.923110501
1800.21420286
1793.0801658
1784.98665491
588.304292103
594.660961564
1789.56319671
1788.03944785
606.092894638
1797.65938385
1802.69109116
593.748675161
597.809019897
1797.78648623
604.272657407
1799.47238195
1794.69103048
1790.85210671
595.923747992
593.062418223
1789.87856436
1794.52973818
606.086624355
1782.38968804
1783.23806807
593.525790712
590.154647661
1781.5011935
1784.75572378
596.616437273
1783.19051281
1781.9535387
592.392859629
596.841227014
1780.82814215
1783.8563581
599.168086594
1784.31959437
1789.15103365
591.65326895
597.073928914
1786.68871482
1787.0327259
597.564781531
1785.09023126
1786.3703029
597.879868367
596.184661425
1785.36820449
1785.8681206
599.822578633
1785.84920747
1783.761986
599.179822077
597.388494307
1785.06528733
1784.59671766
599.739826779
1787.41732762
1787.81385111
599.702681101
601.083146669
1786.33536844
1788.47353853
601.311275647
1786.81783276
1787.18334628
597.878032524
599.91601294
1785.79111669
1788.00109229
599.799365848
1788.26198943
1789.43467146
601.247513707
600.333166767
1789.15664615
1788.68872452
601.457094442
1790.26565314
1789.13491758
602.572769095
601.642380079
1789.97816111
1789.39927484
602.681880508
1791.22871165
1791.92175813
602.895794273
603.529162619
1790.78267111
1792.03662754
603.404841718
1790.59322762
1790.36826119
601.384349318
602.066210742
1789.84967547
1791.19474507
602.274600446
1791.52835986
1792.40146309
603.274692417
602.423333266
1792.34609356
1791.76640415
603.041722979
1793.81806045
1792.98848731
605.00969512
603.981960279
1793.82326
1792.87586768
604.927722304
1794.7877559
1795.6079589
605.64751291
606.322385283
1794.68318137
1795.57506294
605.70216357
1793.88141947
1793.24399853
603.535946616
604.209221893
1792.99944598
1794.17708857
604.472082083
1794.82359911
1795.8321919
606.116699653
604.866393756
1795.6492427
1794.91680999
605.483269706
1797.64901409
1796.58421689
608.512809406
607.285612107
1797.52342421
1796.50288718
608.517689862
1798.92722127
1799.98783273
609.80649303
611.246427236
1798.66153085
1800.11473386
609.92483096
1797.70631195
1796.9288302
606.967029573
608.184073414
1796.57714082
1797.94771276
608.264419355
1799.05842094
1800.58407763
611.179588637
609.537417504
1800.27782209
1799.1344999
609.817275025
1803.38208355
1801.43892844
614.823944016
612.924892323
1803.06803786
1801.58315957
614.811826023
1805.3115738
1807.08927853
616.93645183
619.113202608
1805.00166826
1807.20141607
616.976139414
1803.53690665
1802.18195629
612.772033357
614.724239292
1801.74908606
1803.81438862
614.673526277
1805.46871854
1807.68180685
618.938994138
616.686165734
1807.38914019
1805.61061447
616.817363274
1811.57954253
1809.15746302
623.860946733
621.376619825
1811.26894564
1809.27570757
623.761389695
1813.67533726
1815.18800494
626.281192571
628.798598152
1813.40388174
1815.45386059
626.223687177
1811.67369658
1809.69955826
621.094553074
623.291977662
1809.40777768
1811.71908434
623.426028618
1813.72724143
1815.56674258
628.227368423
625.421576673
1815.50300782
1813.70502067
625.786439228
1817.54600442
1816.84847006
633.832203171
631.380511032
1817.26606252
1817.01089462
633.734398522
1816.32350826
1813.36165204
634.840752724
634.101471778
1816.02063786
1813.35407837
635.51233219
1817.66307513
1816.77322435
630.724940501
632.897031163
1816.98841509
1817.55501632
633.322362695
1816.52894378
1814.15131617
634.05197345
634.482589863
1813.65660045
1816.6359682
635.355943993
1805.82321583
1809.97421779
630.338229739
631.260593111
1806.4551493
1809.54116759
629.931281971
1803.45979141
1803.83277145
628.92520163
617.764436338
1803.68710176
628.326177894
1804.20698804
1805.92800375
1810.62726319
631.248342853
630.030232971
1809.76850458
1806.89133099
629.825861009
1803.51211483
1804.1609917
617.743958553
628.21699921
1804.03226821
628.081646605
1804.28430421
1797.97465524
1802.45386703
598.271309327
595.361226717
1797.67343826
603.344628984
1800.1069274
1795.85782052
1791.89965158
593.988812262
598.628139824
1794.3550902
1793.13659805
604.592913127
1797.74448064
1800.1069681
595.698528496
599.238687877
1797.75434246
602.84171288
1799.63511588
1796.04718358
1793.64942711
599.309535053
597.638980842
1793.65353729
1795.49422484
604.209509867
1789.63302293
1790.58783084
598.378948371
596.726334598
1788.77926315
1791.11337028
600.121486984
1789.48654288
1787.65727017
597.009984083
599.495601974
1787.73511794
1789.31352348
601.133716865
1791.01080233
1792.86578724
597.11539818
599.674123936
1791.39122487
1792.40120396
600.212028816
1790.61708731
1790.9349968
599.896396569
599.375460212
1790.45508568
1791.35606164
601.230105259
1789.57977893
1788.22986446
600.213518631
599.39150887
1788.97231776
1789.23995505
600.878465085
1790.31781804
1790.06767093
600.293609428
601.217670634
1789.48331925
1791.07274651
601.493181599
1790.45676056
1790.95432261
599.476181399
600.275039582
1790.19561468
1791.69028997
601.034417125
1791.11711988
1792.16999956
601.171229583
600.852657492
1791.8101262
1791.99883581
601.371089978
1792.03863625
1790.97437674
601.986611595
601.510135367
1791.72991118
1791.66776174
602.168015217
1792.62041736
1792.82822248
602.140431632