/*--------------------------------*- C++ -*----------------------------------*\
| =========                 |                                                 |
| \\      /  F ield         | OpenFOAM: The Open Source CFD Toolbox           |
|  \\    /   O peration     | Version:  v1906                                 |
|   \\  /    A nd           | Web:      www.OpenFOAM.com                      |
|    \\/     M anipulation  |                                                 |
\*---------------------------------------------------------------------------*/
FoamFile
{
    version     2.0;
    format      ascii;
    class       volScalarField;
    location    "2";
    object      p_rgh;
}
// * * * * * * * * * * * * * * * * * * * * * * * * * * * * * * * * * * * * * //

dimensions      [1 -1 -2 0 0 0 0];


internalField   nonuniform List<scalar> 
28582
(
19555.4579657
19556.3529318
19554.9980557
19555.9997163
19553.6091714
19555.009502
19551.7894781
19552.9373157
360.847434662
392.406984727
0.0208141810028
19552.1907376
18586.4055016
18580.9673348
19554.2561779
19554.4212644
18602.4938478
19553.6270036
19553.5669227
19554.3639354
19557.783182
19559.321313
19553.7885091
19557.7085729
19559.6450578
19552.2250728
19557.4031514
19550.6180632
19555.8087051
405.582047388
0.0301218322044
0.0191817639366
19550.2394424
19551.1576738
18556.3629493
18508.8271675
19550.5625062
19557.746504
19555.8875625
19557.6851692
19554.4469239
18625.8438965
19554.371081
19556.2440231
372.697328912
388.220999157
0.0246685840585
0.0152269274055
383.602145818
0.0280865746249
19550.0063908
19550.1102789
18636.066387
18631.3811404
19550.6278768
18576.5285341
19550.8655675
19550.3317295
19550.8485874
18595.5398507
18612.880674
19551.0132757
18595.6899789
19550.7664679
19552.0747956
19551.4762013
18600.5153814
18589.1735149
19551.4809006
18597.3623192
19552.22943
19553.515971
18610.5277984
18615.0758778
19552.9786399
18594.9162807
18620.2440208
19552.8004674
19553.6014321
18630.3522768
18608.0012352
19552.8003089
18603.7845722
19553.0455366
18627.9154424
350.46006201
0.656038908313
344.801007259
360.973405521
0.335891402417
0.69099600896
394.324761691
0.125767154328
-0.00245519944343
417.053315213
0.680912195431
422.816804285
0.0918179940654
19548.2029607
19548.0298827
18683.3542917
18690.3548468
19549.147611
19550.1149698
18546.2594467
19547.5229548
19547.2537564
18633.1028228
18633.3420239
19548.9018362
19548.6179843
18525.4107339
18671.8002621
18556.3619921
19549.3966176
19547.9439622
18648.3027493
19549.3084386
18549.7485635
19554.5479221
18621.362565
18610.5662718
19555.6074826
18609.8990457
19555.3623486
18629.9490025
19556.727955
19557.5806453
18606.6929993
18625.592092
19556.2648247
19557.6112857
18643.2931855
19555.5256085
19554.548939
18621.6802603
18644.90838
18649.2295226
19555.472885
18635.7371912
18612.6002843
18607.2591101
19557.0388891
19556.605367
18635.284995
19557.4911805
18652.3366375
19560.369978
19559.9069379
449.735146934
0.0221478451091
19551.1410774
18556.2557039
19559.7332474
19562.0660462
18635.5482333
18624.7435555
18585.6263195
19564.2006369
19566.116195
18590.3413855
18595.5370896
369.264133716
447.622932793
488.074374477
0.692001376476
1.52965868979
1.74791074159
529.691346333
571.365197606
19548.5171593
19549.0928155
18602.4969842
18622.9772138
19549.0692692
18528.9220371
19550.0737025
19560.3589103
19559.0565074
18624.8631518
18609.176658
19560.5145743
19558.7249754
18622.644363
19559.7717859
19558.2401707
18599.4489427
18610.7326583
19558.3019441
18606.1462545
19559.8522443
19561.3877622
19562.8933174
18607.5304877
18581.3798346
19562.8756766
18617.1158556
19561.2578209
19566.2276866
19564.5290314
18599.1202899
18586.6622974
19564.4153248
18602.2667016
19566.0794431
19567.8671924
19569.3156245
18599.7008342
18589.6615534
19569.2442852
18601.1182392
19567.7804439
19572.8718306
19567.506795
19563.3377634
19561.0964397
185.311244343
207.422213371
219.465888428
247.296494178
270.816870433
0.125013091648
0.193399131842
0.116243333629
0.104844550373
0.0528008162558
0.0544562616751
19575.3177655
19574.2704556
19266.6455385
19245.4880072
19575.9742394
19304.0062734
19572.4594132
19570.4158711
19223.0525106
19128.2263125
19572.6114153
19569.8392306
19568.5555501
19280.8789284
19316.226771
19188.0847313
19172.5339157
19565.7575122
19561.4774249
19323.0792859
19104.0516171
19198.9464902
18953.047052
19565.8783009
19564.137639
19145.3786785
19104.8536537
18962.8369326
19559.9049524
19561.7372563
19558.7880327
19140.0349473
18889.0969962
18988.2383616
18745.571687
18955.7525678
18720.6889974
185.302752353
187.897967495
175.545059585
0.0365657301889
-0.0286588890621
0.000457236599773
-0.0382344448392
-0.0565801632113
0.0342552364941
-0.0307185360223
0.101319898375
198.319434715
213.660007774
190.272324809
199.066531873
203.033983586
-0.0197088441157
-0.00188853768539
0.0418112192982
0.0624484074696
249.002372505
222.773455393
261.233627557
0.0538392131517
0.16345007572
0.145787718502
0.279610468277
224.87487265
242.409809673
0.12764375897
0.261961891391
0.543307009571
282.39091304
265.181366114
298.557715918
0.487448822261
0.769549926715
0.941538246424
1.27569722169
19573.4731502
19574.547774
19252.2540473
19287.4466765
19574.4112195
19264.5026479
19573.4874117
19573.1547931
19573.1071745
19279.3756581
19223.4125036
19573.9403514
19572.1923527
19260.7989078
19576.2804237
19574.3923282
19290.2452409
19320.801858
19574.9563198
19575.0024468
19327.9353643
19570.9602837
19572.1498622
19205.0234426
19219.4799636
19571.3381783
19570.8236149
19210.3713825
19569.9823891
19568.9093033
19189.4771629
19128.2203966
19569.6917887
19568.6756568
19173.6495523
19571.8617077
19572.8891263
19279.8078604
19210.3188961
19573.1490985
19570.9947108
19243.8425572
19571.9727302
19573.6134647
19258.4785527
19230.8771201
19573.1916155
19570.4281884
19274.3512414
19570.3180552
19569.1036165
19178.185805
19178.3990708
19569.7096232
19568.2022473
19213.1570293
19570.2408608
19567.8849472
19194.8612467
19120.4035914
19568.7405811
19567.2735311
19252.6327996
19569.0050159
19573.1883719
19206.6722276
19134.3071907
19570.0505638
19568.8919612
19222.6004319
19566.6865602
19563.715596
19001.4041638
19006.9861751
19565.7785219
19228.9176913
19560.444263
19567.0878412
19567.1897593
19089.2601585
19080.7692064
19567.0634852
19563.9251408
19172.9658141
19564.758044
19560.1420161
18981.6374244
18879.8188154
19560.3363015
19188.8789588
19559.438691
19566.2373526
19567.7556827
19137.4997003
19075.1845275
19566.7696871
19566.0379376
19076.072615
19565.7967881
19566.1254558
19069.2609377
19064.6772212
19565.6851206
19563.6852748
19117.1062538
19564.6409548
19562.5844217
19035.1422271
18976.347811
19562.7506069
19563.02099
19068.957512
19562.2306006
19565.591524
19038.8674813
18938.8731646
19562.5467994
19561.974662
18974.4430912
19560.7978223
19559.0548915
18844.6562472
18873.7664554
19559.1497734
19003.3484928
19556.7567371
19560.8377642
19561.5121717
18904.5066204
18933.8326898
19560.9849111
19559.1830613
18909.9799899
19559.7408338
19556.4353247
18851.5441918
18755.6547692
19557.9781827
18940.3893041
19556.495936
19559.1924666
19560.986944
18928.1098132
18886.1643346
19558.932873
19560.2816407
18841.6077499
19555.7855465
18757.5406804
19557.3944802
19554.4730995
19555.7076418
19557.3534847
19560.6748556
19561.2793796
19560.6570283
19554.0045544
19555.3652814
19557.309354
19561.3337474
19562.0695087
19561.1272665
19542.9910706
19548.9381007
19552.3807376
19555.4010314
19557.812696
19559.6667265
19560.9235858
19560.3843996
19545.5833573
19550.0485098
19553.6679029
19556.0087535
19558.0728532
19559.8443026
19561.021009
19560.4174854
19550.1227428
19551.6797128
19554.1272405
19556.328054
19558.3511739
19560.0984355
19561.1487238
19560.4775192
19552.5800489
19553.263907
19555.001305
19556.8915848
19558.7195947
19560.3159896
19561.2005028
19560.5745026
19559.0342107
19560.512192
19561.2564643
19560.606107
19539.011023
19547.0487948
19550.8409493
19554.810745
19558.0357381
19560.4004947
19561.7854279
19561.0465207
19543.572932
19548.4350849
19553.5505856
19555.9694977
19558.421335
19560.6179624
19561.915172
19561.0689453
19549.2249551
19551.0749257
19553.5665354
19556.158558
19558.6796609
19560.8126815
19562.0666588
19561.1577756
19551.9755918
19552.762308
19554.6231375
19556.8214197
19559.0840756
19561.0491054
19562.116002
19561.2310665
19559.4034581
19561.2185114
19562.1136022
19561.1829242
19536.3445899
19544.9824258
19550.740699
19554.591085
19558.6205551
19562.2982007
19564.1838254
19562.1561931
19541.0894126
19547.1949689
19552.2620454
19555.3169456
19558.9687981
19562.484342
19564.3358425
19562.2131202
19547.4552491
19549.6614224
19552.6241492
19555.8104958
19559.4487579
19562.7296916
19564.4474083
19562.5285262
19551.8638156
19550.3591071
19551.3367117
19553.676017
19556.5321811
19559.8905445
19562.9187817
19564.4336379
19562.5867807
19552.5796719
19554.3946602
19557.0695494
19560.2362516
19563.0513923
19564.2465444
19562.193432
19562.9342665
19563.9394544
19561.7839724
19535.9968362
19543.960431
19549.0741195
19552.9288977
19557.4235319
19563.3575133
19567.4028895
19564.9503403
19536.7823742
19539.7432314
19545.3994869
19549.5213305
19553.1692009
19557.7449653
19563.6977507
19567.7919491
19564.9116827
19555.7301513
19545.9564273
19544.716237
19547.5000769
19550.3681024
19553.7427099
19558.4488658
19564.0289228
19567.8290303
19565.5910425
19549.7384292
19548.1382985
19549.2686555
19551.4603557
19554.6222466
19559.1457049
19564.262613
19567.7973467
19565.9416032
19550.3903175
19552.1441412
19555.373122
19559.6773796
19564.6168267
19567.7924599
19564.9962752
19564.591232
19567.2410489
19563.3635283
415.366770377
436.154194789
429.096900358
467.341261122
525.038910478
604.031880165
680.528935842
770.166703705
300.707193715
376.944182553
415.720571833
432.40911895
438.275146277
465.383653181
522.752885901
596.204231476
674.204545649
760.93112681
323.68741002
386.787283872
402.209175168
400.641818541
409.524917994
450.000651986
508.847253711
575.736477109
643.302043863
741.487685591
369.777502895
370.543539124
373.305182623
389.481673143
427.3304844
489.686111559
557.029992187
621.294317936
715.220477352
374.905304163
395.461529602
421.081133658
472.661035877
538.295249389
614.415063365
718.281945853
527.171678597
623.843108373
727.033173041
0.00679851982741
-0.0456457801159
-0.0525115054631
-0.0589855626507
-0.0176488637254
-0.0378017485945
-0.0547801046801
-0.090189474888
0.0312181178828
0.444370475183
-0.00256255119087
-0.0416443665396
-0.0564853293263
-0.0491737534782
-0.0201607476728
-0.0236968483288
-0.0413469110424
-0.074055269219
0.0862489717727
0.391645378322
-0.0266857481575
-0.0583657459242
-0.0446385160393
-0.00896651142159
0.0113430065845
-0.000864300326635
-0.0163954533707
-0.0652394403564
0.018135742407
0.27236206534
-0.00313136827975
0.00476380578365
0.0213084886818
0.0317273494559
0.00889027400668
-0.0118992553086
-0.0587696151054
0.0241961623717
0.236791432707
0.010141331492
0.0168188994404
-0.00478425034028
-0.00974741538602
-0.0353674806025
0.0656688955591
0.263893213129
-0.0243378115833
0.0763912490779
0.373633162551
19546.0818455
19543.7436178
19547.1313921
19541.4390167
19545.1990359
19542.5196202
19546.017675
19550.3265676
19549.4635832
19550.7307685
19548.3206896
19549.889749
19548.543471
19550.3061106
19548.1775659
19547.3452674
19549.0217793
19544.8764458
19547.5703756
19546.9095318
19548.7703777
19551.1821735
19550.6296338
19551.9878666
19549.5550159
19550.6599185
19550.278074
19551.5906205
19543.5749794
19539.9182342
19544.0488471
19537.6791672
19542.5873565
19538.1164598
19542.9269411
19549.2482752
19547.2996506
19549.9660537
19545.8435231
19548.3482086
19546.712369
19549.1961936
19546.0385755
19546.3037856
19548.0585065
19541.8935486
19545.0481008
19545.5437477
19547.139725
19550.2444265
19549.7137809
19551.2161069
19547.8952357
19549.8985558
19548.9262668
19550.6107971
19541.4743128
19538.0148656
19542.2900035
19536.617215
19541.5247097
19538.2849143
19542.4131646
19547.7510717
19545.954271
19548.5546817
19544.9518739
19547.777595
19545.4250312
19548.622499
19544.5113436
19544.3595043
19546.2235324
19540.7931993
19544.1029372
19543.4429015
19545.909478
19549.0523409
19548.1060854
19549.855437
19546.4627147
19548.4947673
19547.7586687
19549.2482932
19531.714217
19534.2806584
18189.6216743
18225.3789366
19540.5908256
19537.5375289
19541.3486308
18314.3996172
18373.4201453
18346.7562836
18372.367271
19546.7588737
19544.3907223
19546.8283676
18381.510771
18459.6757363
18392.5207235
18426.2022467
19551.013823
19549.0653539
19551.0138069
18477.1544018
18496.0454827
18443.0379163
18467.0667986
19554.9195517
19552.9367019
19555.0062455
18472.1167659
18446.363253
18455.774458
18449.3088662
19560.3716115
19557.4921384
19560.4400711
18444.1364172
18448.296169
18438.7981458
18465.8313323
19565.9174194
19563.4642959
19566.0619289
18448.5518189
18484.1330135
18468.652047
18524.2655378
19567.2429283
19567.6880278
19567.2018505
18486.8548928
18418.596743
18529.1094375
18343.9526545
19560.5577705
19564.8808295
19561.0150063
18324.0847385
17658.5576498
18253.6171759
17757.7028438
19555.5104391
19548.1130034
19113.0480365
18369.0718161
18971.5514212
18448.2878514
19537.0543166
19541.979973
19540.8292566
18498.6769152
18250.3685248
18549.7162818
18342.3030134
19542.9769618
19542.3629427
19544.6026321
18366.582656
18372.6457671
18438.1017089
18408.96015
19547.3453857
19546.486349
19548.0670381
18401.2564521
18427.9293633
18464.1940615
18446.9694674
19551.5047516
19549.8418013
19551.5623488
18444.9347363
18463.0239959
18479.7537762
18474.7107794
19555.3428186
19553.4109204
19555.5649984
18454.7679899
18452.6412216
18483.7505855
18478.3786166
19560.8102848
19558.1405221
19561.0643314
18443.7766357
18469.3721021
18482.1026968
18505.1969393
19566.3191723
19563.9602993
19566.377837
18472.7604671
18532.8476619
18514.9305521
18561.8111778
19567.3069588
19567.8242308
19567.4016309
18539.502268
18333.1628642
18567.7146385
18390.8325074
19561.1458232
19565.1452232
19561.2975669
18243.2906124
17784.6914815
18290.7512699
17813.1052235
19550.5213345
19555.0950757
19551.2028058
18923.7141577
18455.7517944
18773.8996606
18484.3862619
19544.3941554
19548.4161616
19546.8039672
18557.3931729
18366.1670542
18565.11679
18432.1958171
19546.123666
19546.5629704
19547.387685
18456.9919175
18431.1317397
18498.2822744
18508.3509498
19548.9344617
19548.4902574
19549.7186069
18484.6854194
18475.9286906
18535.821336
18547.1123663
19551.9947186
19551.0372495
19552.5201975
18502.5386467
18488.0827425
18565.5390429
18548.100677
19555.960476
19554.2565838
19556.3997231
18496.2037006
18484.9241893
18557.8670682
18533.8443162
19561.337341
19558.8664138
19561.6079028
18489.3048731
18509.7534459
18539.5074022
18545.9934254
19566.4370687
19564.1961048
19566.3884633
18517.5296877
18559.0231652
18548.522036
18572.0261844
19567.6313053
19567.812296
19567.6964108
18565.1772219
18426.7968364
18574.3389693
18493.0996261
19561.7822544
19565.9024578
19562.2383886
18328.0096832
17816.2245394
18412.9551479
17866.4162165
18748.547069
18496.907079
19548.525874
19550.3265511
18568.0095838
18456.6941627
18552.7740575
19548.5294808
19549.5531462
19549.4853403
18500.9918853
18523.5031945
18546.1888525
18512.0951818
19550.2666022
19549.8486605
19550.6569815
18542.1165366
18548.9265661
18501.9419846
18515.5227093
19552.9331729
19551.7999502
19553.2879526
18566.2988922
18553.2066943
18534.3763246
18560.6683706
19556.7707489
19555.0495439
19557.1405622
18562.1886242
18539.2683821
18579.0146716
18571.887317
19561.8210201
19559.4541232
19562.0507504
18544.0463899
18549.9979079
18575.4193321
18581.8069296
19566.449236
19564.4830065
19566.5240318
18551.8744901
18573.8752165
18585.189802
18607.0235901
19567.7082714
19567.81261
19567.5399724
18576.0614385
18503.0850342
18608.5325275
18492.9027489
19562.3761416
19565.5916554
19561.9898565
18426.7128544
17875.3324721
18404.2276291
17865.6264717
19551.1367278
19551.6684479
18498.3664209
18516.0338435
18572.4004411
19553.6390444
19552.6635615
19554.0173937
18539.9530887
18565.8948578
18594.4350282
18601.6628429
19557.4643215
19555.6695388
19557.7008015
18583.8082724
18581.2682748
18611.2779605
18620.7015255
19562.2245467
19559.9223231
19562.4055984
18583.5803065
18590.766442
18627.5284534
18631.010827
19566.7183371
19564.7288122
19566.6927484
18594.3996703
18616.471302
18631.1563267
18635.1536703
19567.2587113
19567.5877561
19566.5921515
18618.5326
18467.1334352
18633.1726983
18359.3937692
19561.4035152
19564.0530441
19560.6852707
18375.3526847
17872.8238243
18270.275561
17848.955663
19562.3973927
18631.6171392
19566.6037616
18630.6817129
18629.1653378
19566.0805671
18624.2031481
18334.390574
19560.0905529
18246.6407914
17842.9933052
0.390506572642
0.171367627927
0.267469484494
0.0104840668148
405.595887157
402.042688719
0.068490932774
0.11832853597
0.0622945559462
0.112281581241
424.64577787
418.553148568
427.423834922
0.173823883912
0.114728454137
0.259728110846
0.372148847093
433.804008655
435.871941541
440.190484963
0.0356559387405
0.0262277173444
0.255316043269
0.146412536293
442.019640304
438.900447476
448.14676847
0.0519622097322
0.15034898297
0.179297870962
0.143756912124
495.878942041
466.618034944
494.30785115
0.303387666741
0.405229789062
0.143144409858
0.0666809000577
563.751487819
526.665526075
562.64221489
0.433422437336
0.507827956647
0.0836702686967
0.151570367937
643.519290723
600.316223381
639.603229068
0.572427443951
1.12485776675
0.788130208791
1.8824925699
733.548298534
678.093098394
738.012552844
2.51353352991
6.26046457166
4.07579733921
7.28761108302
770.494470772
765.123018751
762.024269567
9.6016754303
12.1145580196
9.71389469279
11.6789432981
342.422239797
308.320001342
349.889417494
0.206157163176
0.0518026279378
0.398378500426
0.238203862
400.584972796
378.279439065
400.498152419
0.0595955703084
0.0999026387471
0.106492485642
0.056991249499
420.783494247
404.880816214
416.332708652
0.169114316435
0.357243837547
0.0898637801098
0.0467336184537
433.429472171
414.403204355
420.61770411
0.350340445016
0.268126555825
0.216975062314
0.246223252394
446.233097234
425.116012131
440.385975857
0.215465210015
0.212903806
0.403772626705
0.226249032519
490.68401088
458.239680285
486.92351242
0.0845181516846
0.0739582264799
0.202136112621
0.0267081904507
559.013824306
515.613718121
550.981334892
0.0101858088977
0.134792237851
0.0608543195094
0.143888923179
631.965849893
583.978576211
619.14528771
0.612758808531
2.06084822431
0.595871289594
1.48224606844
734.896809134
658.286305198
723.953668828
4.54380185404
7.56356948707
3.86189346093
7.17460007169
755.982641323
753.698045877
747.6262664
9.58704026943
11.1388400847
9.27730277345
10.7474488916
356.548544495
333.262236357
367.64391474
0.864424688756
0.543426709887
1.18192588068
0.543732006157
394.144141756
378.512718462
392.415668651
0.129646647594
0.0509818360263
0.128564224125
0.0318829915557
400.690305898
386.820388119
385.933582285
0.0359816169591
0.0219842933064
0.0253521152771
0.00423706543147
401.55194561
381.22110686
384.517078954
0.00396664240551
0.113001946943
0.00459338138018
0.0571577290463
424.497199175
392.226038006
409.082262504
0.188549358384
0.375387474938
0.144634503216
0.123214315869
476.337624624
433.732821427
464.723670235
0.265556264379
0.332907472745
0.206977358382
0.187898240246
541.883192876
496.276117022
531.043710067
0.175707819486
0.30949770893
0.215743090541
0.136675299713
608.485217122
565.015112163
596.463308851
0.385920052787
1.16855209039
0.34312154475
0.802067215455
704.06456317
630.600027905
684.138685775
2.84528385838
6.27922029993
2.46139040682
5.43673007643
741.23982739
725.851487198
732.33854888
8.44611644402
9.97250697434
7.75263283581
9.53672722317
369.335688753
346.493565902
0.0257829718813
0.0089273254911
0.13045534282
367.798901559
355.627077546
364.836241352
0.000461889319288
-0.00139519536648
0.17114903539
0.349279188233
378.800806885
374.71330738
384.64763708
0.0499699921883
0.155663674535
0.495693795507
0.388215234025
402.589852902
395.063537239
404.537246575
0.144466701676
0.114491148848
0.212780634718
0.0347669767294
457.546724182
423.970898207
451.065357382
0.0772125076037
0.239394550739
0.0363962219314
0.0629164628547
523.337292518
480.893647346
513.603800533
0.106964978328
0.136314862742
0.121537849579
0.0479684624956
588.152987196
546.899951377
579.221487265
0.0333107741609
0.603728897871
0.235097929682
0.631275141559
671.688063467
613.715013262
670.543191237
1.932808696
5.07277019289
2.31168106008
5.20915243778
725.640985483
713.231382027
720.573475239
7.36277294555
9.24749665785
7.39550407365
9.12725470575
387.342650698
377.838752584
0.635640095929
0.38481673285
0.55716375323
0.0970829662671
407.241549119
388.666630672
401.30059894
0.0410709394311
0.0216834442332
0.0295149357389
0.0167226037637
444.892174673
415.997013626
435.193540721
0.00931790277016
-0.00194934242475
0.00476189492206
-0.0193367819905
503.888822981
458.591549173
489.774730048
-0.021935654358
0.188565910372
-0.0037671513793
0.430308972539
574.413913907
527.949694315
569.67237569
0.426466520734
1.37429520134
1.13509181802
2.05825380239
680.728262019
622.894789612
692.533747887
3.0470264254
5.92296012119
4.1722718374
6.63555674001
718.807833047
725.001283353
722.593794452
7.71581422431
9.25084524048
8.12271281554
9.4301895703
483.363747236
1.30209911984
572.369990848
1.54114583541
2.34986855896
1.46264360806
1.39678716196
693.916084919
4.26706169112
6.88894642876
3.04641222032
6.28501567131
726.377025685
8.70126092211
10.2356715085
8.62598121278
10.5394081378
19531.7025125
19531.3998428
18097.5498787
18277.4165404
19532.7695339
18301.8734175
19529.9200475
19532.5440175
19533.8942424
18298.5474053
18166.9888409
19533.8046291
19532.4268429
18321.897636
19536.1943069
19533.6138366
18321.8991641
18251.4779264
19533.9881749
18303.5503593
19535.9293888
19537.3718238
19540.1253614
18336.6779921
18338.8902263
19537.9555854
18343.1626112
19537.996095
19536.4588022
19536.557547
18261.2117832
18339.1371665
19534.8184004
19538.186991
18312.9544866
19538.3464241
19541.2977065
18353.2351867
18335.9530409
19539.553593
19539.6530633
18360.3622943
19540.6867546
19541.6884942
18382.2507975
18348.5503707
19539.0195813
18387.9870512
19543.002346
19542.4216465
19545.9601289
18406.407429
18434.1179716
19543.9751633
18416.8769043
19544.3078367
19542.1869964
19542.6016428
18357.1128884
18385.0583485
19540.6760159
19543.5252203
18388.1301726
19543.5868859
19545.8729302
18419.189137
18391.815165
19544.9251802
19544.4501526
18410.0705134
19547.6076524
19547.512565
18481.1311535
18463.9018535
19545.8700556
18478.7390203
19548.5206561
19549.0891144
19550.6086556
18492.8156073
18451.7193507
19550.4013392
18469.5081408
19549.3979713
19547.6852594
19547.1196549
18443.4388615
18446.3359922
19546.2299213
19548.0547045
18464.2031838
19549.1770718
19549.8142475
18450.0060751
18458.510902
19550.2189075
19548.9517186
18459.6791239
19551.9365595
19551.4054189
18426.2725631
18455.5422677
19551.2261687
18459.8032787
19552.1653984
19552.6297704
19554.6758694
18428.2941058
18417.7428651
19553.785794
18444.4680092
19553.2752375
19552.3611808
19550.7355061
18455.6305277
18438.3608988
19551.1850949
19551.7164044
18459.8038254
19553.5163322
19554.3638165
18419.0180167
18443.711825
19554.6519289
19553.0285229
18442.4204508
19556.9534113
19556.1243303
18428.0488878
18423.4154348
19555.3035478
18438.5105655
19557.4636142
19558.7016922
19561.2767555
18434.2154477
18435.2908249
19560.6761306
18436.9689203
19559.2442907
19557.1328602
19555.7586022
18427.2900883
18428.5254713
19555.8069201
19557.3669209
18441.4147233
19558.8956299
19561.4847189
18437.2239143
18443.1806568
19560.8727872
19559.3956037
18438.7188704
19565.029745
19563.2039744
18449.2813555
18450.9061084
19562.8328534
18470.1127946
19565.188376
19567.1707756
19568.9690101
18464.9403633
18473.4462492
19569.1904343
18470.8362764
19567.2233557
19565.1294322
19563.4912037
18455.7010093
18471.9740766
19562.9625522
19565.5191841
18479.1926987
19567.1666447
19569.6286937
18483.7616685
18495.9668077
19569.2624546
19567.6986294
18481.227097
19572.1262651
19570.4611655
18495.4544671
18495.6939314
19570.9777554
18518.375368
19571.4307559
19571.4400928
19568.6850819
18465.6912742
18394.0622452
19568.5002683
18485.9771154
19570.9690634
19571.748021
19571.4168864
18505.3941914
18519.671147
19571.0325132
19571.8049093
18525.2216508
19570.5691176
19567.3782463
18372.1216178
18442.3535334
19567.2464994
19570.4157859
18476.1052517
19558.0172706
19564.4641648
18165.5323074
18241.2962886
19563.6727795
18109.1754169
19558.5334057
19551.8779027
19550.3838593
17999.7414543
17745.5984696
18013.7868594
19552.4770947
19551.2326378
19557.4119871
19563.4225082
18225.8827762
18148.5737957
19562.6053847
19558.9403999
18099.2837467
19552.3856752
19554.1867154
17795.0910708
18023.6587825
19553.6533544
18021.9005394
19553.4113562
19551.5878541
19559.5702173
18818.3391913
18675.1253596
19550.6443574
18732.7232475
19554.4923578
19547.9554684
19538.8602197
18362.3830354
18591.412828
19543.9545186
19543.0432929
18782.911709
19551.8784177
19557.471977
18667.1931552
18773.1280312
19552.3522716
18710.6751236
19553.5706811
19549.5677264
19544.4876513
18613.6095144
18440.8831688
19544.8511049
19548.4438508
18776.2097847
19535.294673
19537.3398391
18411.2791186
18237.2318142
19535.5211777
19538.3464354
18253.8527182
19537.1613811
19534.9528217
18206.7190958
18374.6430222
19533.6462013
19538.7187511
18396.629565
19537.426166
19543.1623642
18289.0337468
18495.2948906
19540.3823639
19541.1252685
18294.1597678
19539.0469232
19540.2438223
18411.9647095
18319.905008
19539.3949656
19539.6413561
18429.1959876
19539.8463527
19537.3334475
18355.7625189
18304.3996139
19538.6684318
19539.0549945
18345.861514
19541.2124764
19541.1834479
18341.3348666
18392.9001563
19539.7086001
19542.1050271
18404.8120913
19540.0949623
19541.624543
18332.9423045
18432.5897737
19539.3433153
19542.7746849
18364.5851172
19541.7291326
19544.0258388
18421.4155006
18389.9219773
19542.8406592
19543.3762681
18429.1529984
19543.9233834
19542.6874161
18395.3661423
18379.4905737
19543.5258274
19543.0002033
18404.9991207
19544.9489905
19545.3496166
18399.0686799
18433.4432622
19544.2061582
19545.7668571
18438.2257063
19544.2553549
19544.9735533
18401.9125958
18473.7733152
19543.5230197
19545.8397923
18419.3748725
19545.2961688
19546.8524168
18454.8104955
18446.1823093
19546.1611414
19546.3109338
18457.7471767
19547.8387063
19546.5813269
18446.1249727
18433.1300983
19547.5621753
19546.6914389
18452.8818527
19548.9594048
19549.6568648
18454.8295868
18452.6860586
19548.4945198
19549.8140042
18461.607915
19547.6537557
19547.7350113
18443.565714
18484.0515878
19546.7717043
19548.7260777
18455.8085153
19548.742217
19550.3654087
18458.6824426
18466.1813382
19549.7042436
19549.4719984
18468.7069699
19552.0213121
19551.0895909
18440.3523712
18454.7757181
19552.1566114
19550.881587
18463.5920922
19553.2592394
19554.4690182
18445.9244187
18440.1473093
19553.2345916
19554.4657711
18456.8257984
19551.7344284
19551.4835897
18455.828738
18467.9342526
19550.6063115
19552.5137885
18464.5919969
19553.147846
19555.0995586
18447.6158
18463.3761546
19554.4255857
19553.6906679
18462.9937627
19557.7768952
19555.9078053
18434.8250853
18447.9061818
19557.4820349
19556.0154221
18464.2069469
19559.5766019
19561.2403789
18448.4316437
18458.8238321
19559.2932619
19561.4333948
18462.3713269
19557.6222974
19556.699623
18452.6324274
18474.0949902
19555.8470557
19558.3123081
18470.7971822
19559.571029
19562.1305891
18472.5270687
18481.1725524
19561.525536
19560.08988
18472.9427459
19565.8646687
19563.2594901
18476.5294678
18475.9362806
19565.3211192
19563.5661601
18510.537183
19567.9235901
19569.2740944
18501.4824319
18526.5629368
19567.4549967
19569.7198488
18520.2712784
19565.7836048
19564.1553889
18488.8076308
18518.7670248
19563.5091097
19566.1489448
18520.674834
19567.8701452
19570.03143
18533.9458116
18536.9680612
19569.7313731
19568.1753928
18529.1299952
19571.7451175
19571.0482479
18526.6268784
18547.5354771
19571.3458738
19571.3402039
18550.2101659
19570.1760603
19566.29762
18440.0563709
18361.5245165
19569.7255136
19566.3979259
18488.1485508
19571.8615471
19571.2739386
18555.9566333
18567.9093962
19571.2833357
19571.929721
18566.540613
19570.4140085
19567.6545518
18378.9108115
18493.4804124
19566.7677502
19570.7502695
18505.3019572
19556.9275586
19562.0901178
18144.8637384
18205.3494992
19557.6182242
19561.7752716
18081.3882189
19552.6752289
19553.6190417
18032.6880242
17844.0057006
19552.7290483
18025.6003615
19554.2685215
19557.0528479
19563.3339711
18220.028851
18175.9293286
19561.9710822
19558.664023
18092.7044798
19552.8678245
19554.5677144
17851.6001734
18063.1496639
19553.7821432
18033.2243853
19554.5000682
19552.28545
19557.2998696
18769.3127195
18619.0173359
19552.6144758
18630.3461062
19554.4232243
19550.2246401
19545.7031658
18464.52906
18615.3752692
19548.7614929
19547.3928522
18689.4006283
19551.8528168
19554.7004474
18615.1535688
18717.5512597
19552.4504599
18602.3105331
19554.0197419
19550.484863
19547.6557638
18622.0059197
18503.9865625
19548.2551257
19549.8632432
18669.9351343
19543.5283841
19544.5955224
18517.1939328
18388.8453343
19543.4211116
19545.0828187
18387.834413
19543.5448813
19541.6205277
18353.1772436
18488.263001
19542.1368532
19543.434085
18487.2272197
19544.6875458
19547.1070416
18420.0882268
18580.6425183
19545.5481624
19547.1499207
18407.2433691
19544.6146341
19545.3304003
18513.5726794
18454.227824
19544.7679098
19545.9547768
18496.2838534
19543.8993002
19542.633545
18457.9547542
18404.6241876
19543.948332
19543.4330851
18418.9993493
19544.6671283
19544.2602194
18418.2097239
18506.9410799
19544.1499946
19545.3798585
18489.2356731
19544.3804621
19545.459895
18436.4427828
18564.0955626
19544.3608363
19546.5991581
18441.6339535
19545.1958205
19546.9111749
18538.9363238
18521.4854695
19546.1858536
19546.8420129
18505.194442
19546.3609235
19545.2316112
18502.1452847
18482.7506808
19546.2206529
19545.9645547
18484.9957044
19546.9988766
19546.7363233
18478.0629257