/*--------------------------------*- C++ -*----------------------------------*\
| =========                 |                                                 |
| \\      /  F ield         | OpenFOAM: The Open Source CFD Toolbox           |
|  \\    /   O peration     | Version:  v1906                                 |
|   \\  /    A nd           | Web:      www.OpenFOAM.com                      |
|    \\/     M anipulation  |                                                 |
\*---------------------------------------------------------------------------*/
FoamFile
{
    version     2.0;
    format      ascii;
    class       surfaceScalarField;
    location    "2";
    object      phi;
}
// * * * * * * * * * * * * * * * * * * * * * * * * * * * * * * * * * * * * * //

dimensions      [0 3 -1 0 0 0 0];
oriented        oriented;


internalField   nonuniform List<scalar> 
92311
(
0.201307537969
1.16140265379e-05
0.000834201821352
-0.201624073317
-0.000529280466433
4.99170170708e-05
0.200989287541
0.000892650206286
-0.000624395885395
0.201345799209
-2.38506439566e-05
0.000880266585693
-0.201675804085
-0.000514876700177
0.000104887177904
0.200988665765
0.000932081619962
-0.000630050598425
0.201446770637
-6.40275961032e-05
-4.2490980742e-05
0.000952940419469
-0.20181138176
-0.000555150707151
1.95934366814e-05
2.98030866011e-05
-2.32957223732e-06
1.75631529357e-05
8.28733057353e-05
0.2010384715
0.00100449107317
-0.000660193670829
7.07771492235e-05
0.0504819814083
-1.76278123666e-05
-3.34958374755e-07
2.52156502428e-06
-1.40509043983e-05
0.000176044155653
-0.0505318535154
-0.000160692873244
-0.0504127232867
0.0503516713354
1.20698448138e-05
7.55292453869e-06
1.38131346267e-05
1.46891859002e-05
0.000230026640783
-0.00021943102976
7.3538434059e-05
0.0369308138173
3.54128354529e-07
-8.86584349968e-05
-2.16363952987e-06
-0.00341645342563
-0.0358844245444
-0.00165090749218
0.00403790770865
0.0414218401492
0.00730615006288
-0.00304618896004
-0.0399456226922
-2.13537386898e-05
-5.65675513573e-05
-5.42955168156e-05
-2.24127812057e-05
-0.00558153609738
-0.00775043183238
-0.00037400182849
0.00565906646861
0.00522422300296
0.0033015260721
0.00342699040407
-0.0102680817734
0.00100562316706
-3.19921952039e-06
5.76190598045e-06
3.68608548955e-06
6.82482983462e-06
0.000210127499361
-0.000196318515324
1.55986227397e-05
0.0125462509345
2.36424850582e-05
5.64643739892e-06
-0.0125175008425
0.0125313822075
1.30408724655e-05
-2.03913675146e-05
-0.0125231369251
-4.16660088414e-06
3.31504023433e-06
-0.000231062732416
2.17723423728e-05
0.0502837623995
1.63388553679e-05
1.49695609257e-05
1.78435762112e-05
0.000245673657148
2.84205926126e-05
0.0502837800188
2.42364143409e-05
2.44920385053e-05
2.53661418004e-05
-0.0503477272522
-0.000186763665661
9.42393476755e-06
-1.74043101112e-05
0.0125299584631
6.59043274614e-06
2.8576396593e-06
-6.56561453753e-05
0.0125713187429
6.03565262579e-05
3.8191261873e-05
-0.0125824429993
0.012571404987
-5.84397169241e-05
3.10940582321e-05
-0.0125812748272
-8.46374164977e-05
0.201883320976
0.000963944750405
-0.000507818647559
-0.202254809627
0.20071683179
6.88605084504e-05
0.000823336025367
-0.000619887258286
3.89397908451e-05
0.200522320639
0.000752324725014
-0.000596933224791
-7.30382996032e-05
0.201937525006
0.00086006360208
-0.000539550451085
-0.202269732728
0.200681898071
0.000150652445768
0.000856160566314
-0.000631405997899
0.00010413937482
0.200441412474
0.000775309093409
-0.000600247313521
-0.000133828574222
-0.000130587307128
3.15494263639e-05
0.00116263237793
0.202078626106
-0.00061071338764
-0.202491208657
2.03992281106e-05
3.66869108704e-05
4.95515130678e-05
9.84585693267e-05
9.30654032545e-05
0.200636365924
0.000926123688117
-0.000651258279428
0.0507110174189
-2.67618550107e-05
-5.90106027686e-05
-6.16090119395e-05
-3.28211380257e-05
0.000216179019076
-0.0507471401123
-0.000133610649407
0.0502184252176
-0.000233562501896
2.19006494528e-05
2.10152564896e-05
1.60146997009e-05
2.76174346565e-05
0.00024902080516
0.00702407318073
-0.00170367668059
0.0420037444315
-4.54984558336e-05
-5.7967570124e-05
-7.08329969379e-05
-2.00216934689e-05
-0.00570802764994
-0.00098485435446
-0.00354222124792
-0.00347641342148
0.00524580994195
0.00357725304592
-0.000621314933096
-0.00680897941152
-0.00220536180752
-0.00141650644554
0.00459450651548
-0.00292153181532
0.000800377028215
-0.0046118754709
0.00604453831014
-0.00456442061111
-0.000208166834977
-4.29515342765e-05
-2.43199636905e-05
-3.29198227978e-05
-4.6085850201e-05
0.0506278084566
0.000307254054945
1.12276937084e-05
1.28103304085e-05
-1.39598776693e-05
-1.1455510773e-05
0.0505807754044
-0.000123368376133
-0.0506326442052
-0.000167491257192
7.75463139262e-05
0.0125555199855
3.83000076623e-05
-6.95459225817e-07
-0.012502970909
-1.83738067355e-05
5.342949787e-06
-0.012498324756
-2.18913001351e-05
1.31002510782e-05
0.012520280332
1.31544504125e-05
0.0126569685573
2.92835462445e-05
-1.85397528276e-05
-0.012669596513
-0.000223814153374
1.9129139746e-05
2.04853865502e-05
2.62742398305e-05
2.73324166147e-05
0.0501525642729
0.000245996233308
0.0502353401042
3.03410908394e-05
2.3531993613e-05
2.21485657067e-05
2.58924813762e-05
-0.000188631016679
2.80020965418e-05
2.5402650907e-05
2.58187622468e-05
3.14971172629e-05
0.05017445296
-0.000180549040624
-6.64492647598e-05
6.25473556749e-05
3.57047927092e-05
0.0125614337592
2.61917810404e-05
-2.37316778263e-05
-0.0124796626984
7.488698166e-06
0.0124766867739
-6.9547434583e-06
-6.15914737668e-05
3.58298179054e-05
0.0125610666037
-0.0125636422899
3.22703530721e-05
0.0125517775553
4.91894292657e-05
-4.1306790461e-05
0.0383427682538
-7.23733901837e-05
-2.58164089647e-05
3.26263390836e-05
-0.0040973701422
0.00571689958294
-0.00295293751529
0.00104895446975
-3.9845852922e-05
-1.59854695004e-05
-6.40654143194e-05
-2.54262107857e-06
0.0415692597194
0.00574406210285
-0.0409337397998
-0.00337832461603
0.005444037183
-0.00348092564083
0.00208987054776
-0.00264141175817
0.00332567862771
-0.00145144594039
-0.00340494090049
-4.91791558259e-05
-7.07203624579e-05
-2.03043816183e-05
-0.00479884737747
0.0067509327623
-0.000632392808529
-0.00208528683753
0.00189374256509
-3.25743094347e-05
0.0126387794601
3.22927619187e-05
-0.0126405203646
-0.0126277568645
1.74932277144e-05
4.06779256449e-05
0.0126200614025
-5.07896570677e-05
-2.35710263054e-06
-2.42647389499e-08
0.0125442347906
4.63807072956e-06
-2.96210590819e-05
0.0125135176641
-0.0125454061432
-3.63320031598e-06
-0.0126410769975
-4.62581240698e-05
0.0125312275783
-4.92603694357e-06
0.0126295458457
3.59309545172e-05
0.0126166415382
2.05720395653e-06
5.41655951721e-05
-5.61274674608e-05
-5.29341399399e-05
-0.0126160689589
0.0126081408137
4.62341154837e-05
-2.32942473445e-05
-3.14488712196e-05
3.44358763216e-06
-1.91726272666e-05
-0.0125472484773
0.0125422607561
-5.83824982915e-06
0.0126071785603
-5.89683708062e-05
-4.66554358024e-06
4.30003814861e-05
-0.0125945248966
2.15494745567e-05
6.09428811435e-05
0.0125883039888
-6.41819814501e-05
-5.25460217277e-05
0.0126011431625
4.96914637142e-05
-8.12690635026e-06
-3.4798916842e-05
0.0125210729773
2.6720058771e-06
-3.57816420056e-05
0.0125220784577
-8.14299661845e-06
-6.18566120442e-05
0.0125235743305
-8.35196511879e-06
0.012589311304
5.27281934791e-05
2.5681784639e-05
-0.012579920482
0.0125739590797
5.69987834322e-05
3.50280146687e-06
-0.0125111956978
0.012511399674
6.02357657137e-07
-0.0125193368308
-5.83159816003e-06
0.0125103025872
2.20223811728e-05
6.38421233524e-05
-6.50316307582e-05
-1.05764885911e-05
-3.62100819537e-05
2.34363374325e-06
-6.758588543e-06
5.48838052403e-05
1.5369228087e-05
-0.0125759330032
0.012570300336
-4.39259053226e-05
-7.34472254325e-06
-0.0125173787081
0.0125101205112
-0.0125071422977
0.0125042948478
-5.15939742599e-06
-5.16414073306e-05
1.61397812598e-05
-0.0125863103397
-3.00739119474e-05
-6.90934975982e-06
-0.0125299953558
-4.27624705928e-06
-0.0125883777314
-4.39153056848e-05
-0.0125175433898
0.000549106439371
-0.00375925265239
-7.56933635255e-05
2.063208088e-05
3.77999694894e-05
0.000126332458649
0.0347754297213
-0.0337833820466
0.00210901249736
-4.33097921597e-05
0.00842253136153
0.00202109892445
-0.010843761712
0.0345865632431
0.00340711947959
6.00847930001e-05
-0.000106988832043
3.15504596011e-05
-0.0076524223035
0.00312574482969
-0.0336191580617
0.00228212968345
-7.39345911082e-05
4.16996277881e-05
0.000124200345775
0.0356832412201
-0.0072478018322
0.00472132268111
-0.00229368197386
-0.00501721567369
0.00245440105858
-0.000293562769165
0.00375124280353
0.00313836579049
0.0406984080877
-5.96193971243e-05
1.1141696039e-05
-2.4470299986e-05
-1.538114835e-05
0.00484473940713
-0.00501571260545
0.00948607279573
0.00269433485346
0.00419501537411
-0.00300024815869
0.00439693103837
-0.00656779465999
-6.41816414417e-05
-1.62503984211e-05
-4.814679668e-05
-4.21031915998e-06
0.0392106315138
0.00379364484635
-0.00347525562315
0.0136073729598
0.000825646232748
0.000573976436517
-5.86399539537e-05
-6.69218586608e-05
-3.05387244275e-05
0.041644935344
-0.0066013895533
0.00522448911877
-0.00314378612218
3.57744727123e-05
-0.0126805860697
-1.4932668961e-05
0.0126752878587
-4.22518097361e-05
0.012696978963
-2.88397972115e-05
3.99968299224e-05
-0.0126895540582
6.677116218e-05
1.45041473507e-07
0.01254615958
2.54725307827e-06
1.12768953945e-05
0.0124787410238
-0.0125474641498
-1.12478982333e-05
0.0126933546076
4.46490517654e-05
-0.0126938403933
-3.69390426971e-05
0.0125093278387
-1.39185658538e-05
6.19112510902e-05
0.0126754475213
-5.14153195241e-05
-5.38072091076e-05
-0.0126769505574
-6.56008031142e-05
6.09865958835e-05
0.0126625929042
1.08703099178e-05
-4.68248817717e-05
9.79924453994e-06
4.42894878448e-05
-0.0125545393273
-2.00515717559e-05
0.0125500724331
5.62958080963e-05
-5.93329553327e-05
0.0126674214824
-1.93199860836e-05
0.0124962297784
-2.07792148583e-05
7.08960783068e-07
-0.0125385885866
-1.04057620746e-05
7.65247102332e-06
0.0125215973472
-1.93965583468e-06
3.45626262671e-05
0.0126485130917
-2.34110347005e-05
0.012665792753
-3.90354561477e-05
-0.0126650252222
3.04071351543e-05
-0.012552596544
0.0125473809222
0.0126602691389
-0.0125055866399
3.41192041619e-05
0.0125649639397
5.84315748504e-05
1.8650688212e-06
0.0124991138961
-9.90082847037e-07
0.0124975737474
-7.67215930004e-06
6.91511832879e-05
1.7251936177e-05
0.0125572287474
-6.61720619833e-05
-4.8846384857e-05
-7.52663273926e-06
0.0124883570365
-3.73254753055e-06
0.0125528116587
6.00950325599e-05
0.0124943648312
-7.13250376551e-06
6.70792883146e-05
0.0125526114605
2.10218748923e-05
-6.43744413959e-05
-0.0125448632133
-5.77554118084e-05
0.0125384527329
6.09099226644e-05
-4.02048996251e-05
-4.2725869241e-06
-5.45512800113e-06
-4.21612848337e-05
-0.0124876042653
-6.85316444808e-06
0.0124772004303
6.10645812948e-05
-6.02994589603e-05
0.0125402988968
-7.02963900013e-06
-0.0125688503279
1.75613014669e-05
5.36365709935e-05
-4.24466289755e-05
4.38808828858e-06
-4.24213601442e-05
-1.59320843772e-05
0.0124945576017
0.0125051724336
-1.32180442068e-06
1.68184977404e-06
0.0124993602313
-2.83889312577e-06
1.60706178631e-05
0.0125583306592
0.0124897747658
0.0124762921233
-4.27177909571e-06
-4.14006984828e-06
-1.56702831781e-05
9.89065179569e-06
0.0124710931138
-5.34952578531e-06
5.40493742468e-05
0.0125467924398
-3.928922775e-05
0.0125553432776
1.36067913502e-05
-3.56896256215e-05
-0.0124877759647
0.0124782356105
0.0125448942098
3.36266508151e-05
8.20790604961e-05
9.30958667543e-05
0.000835340650232
0.200253688063
4.83521768471e-05
-0.000605790799492
-0.000203457772501
1.68170709891e-05
2.05816784506e-05
2.63501449911e-05
2.50563022143e-05
0.000234280597007
0.0500665063562
-4.26595562799e-05
0.00528668323871
0.00364279364475
-6.58769384041e-05
-6.79950461935e-05
-2.90061021111e-05
-0.0068093790803
0.0397306811947
-0.00277025633454
-0.00430695859516
-0.00511146645524
0.00530864560556
0.00494308931714
-0.0043281851772
-0.00262400369957
1.931967507e-05
5.62684130874e-06
1.76025973603e-05
9.87890960496e-06
-7.55596579186e-05
0.000257790190026
0.0505223463417
-7.54663187923e-05
1.169141684e-05
4.00959118416e-05
0.012551054397
0.050097993745
2.77956200272e-05
2.31843138634e-05
3.33530730413e-05
3.10446474909e-05
-0.000160406435118
0.0500288379903
2.61786056989e-05
3.10666757102e-05
3.08302655926e-05
3.43995802642e-05
0.000183665327539
-0.00014392695032
-2.94337381536e-05
0.0124642841702
5.32879867456e-06
-6.13938651514e-06
-2.04404903559e-07
-1.03208413478e-05
1.82367578999e-05
0.0124674750353
-4.28607821797e-06
0.0124324235397
3.54676574236e-05
-3.46403257912e-05
1.35484311412e-05
-0.0124384026269
-8.48723079394e-06
0.049943158022
1.62101329087e-05
2.33996051508e-05
1.65510937567e-05
2.05013640151e-05
-2.47452133235e-05
0.00016364308412
-0.0001299469049
2.50412900838e-06
5.57437428865e-07
-1.01178690335e-05
4.24736030617e-06
3.01333330488e-05
0.000135039393756
0.0499001732026
-0.000119509448401
4.87743186067e-05
-3.63404550837e-05
1.12493530644e-05
0.0124176681724
-8.92016131339e-06
5.35291355773e-05
-1.49779561881e-05
4.77071116646e-06
-0.0123800096125
0.0123468957621
-1.01271893286e-05
-7.35510135172e-05
1.28845520699e-05
-1.01355754856e-06
-0.00385935029146
0.035795345639
-0.000591805277087
0.0368234457973
0.00515766328425
-7.61543308482e-05
-4.79506243406e-05
-2.9295189515e-05
0.00267065956196
0.00583211571088
0.0341427912927
-5.0924201812e-05
-6.75707618658e-05
-2.6098239546e-05
-0.00429983101335
0.00132874720247
-0.00147836985712
4.10736064722e-05
0.00753312456083
0.0140572737076
-0.00104606516398
0.00272057641881
0.0135219691892
-0.00144394853206
0.0310513905302
-4.05409735081e-05
-4.53274308536e-05
-4.02279947896e-05
-0.00249441074157
0.00535705355955
0.000403109032886
-2.12236802108e-05
-3.58817144442e-05
-4.53133680759e-05
-0.000430382752693
0.0039930040137
0.0277306652495
-8.58852591294e-05
-0.0126449106673
1.67111591056e-05
-5.58929897898e-05
6.9954273324e-05
0.0126334791701
5.35958519201e-05
0.0126446175947
-2.00309480241e-05
0.0125134426278
2.04923485924e-05
1.79475879512e-05
2.90441503831e-06
0.0125477292229
6.64668095143e-05
1.98251497123e-05
0.0125272488499
0.0126372840039
5.79034281961e-05
-0.0125266869386
2.06413969417e-05
-5.2131797621e-05
0.0125170845467
0.0125267450208
-5.67284227285e-05
5.95414547317e-05
-4.26666163879e-05
-5.12108022387e-06
-4.52740575085e-06
0.0124507093256
-3.92608173036e-05
0.0124608323205
-7.06465864708e-06
5.69038871032e-05
0.0125113756649
-5.73885737362e-05
-8.22752790504e-06
0.012455507506
-0.0125307431021
2.61005162072e-05
-4.10830527127e-05
0.0125213336543
5.40510066959e-05
0.0125419619903
-3.64314180593e-05
-4.42166143154e-05
0.0124573793974
4.84387696106e-06
-3.60198259388e-05
0.0124559862005
-5.23593372429e-06
0.0124507466436
0.0125287746102
-3.28344003471e-05
0.0125100848934
2.41476612963e-05
-3.45004638113e-05
4.7782307113e-05
3.549967187e-05
-0.0125134360832
0.012500957833
-2.66481051263e-05
-3.62746211256e-05
-0.0124418191421
0.0124294535064
1.12031711332e-05
1.99070793991e-06
-4.4720914623e-05
-7.22859718999e-06
0.0124968192872
4.33200898604e-05
8.89729783677e-06
-2.95562362317e-05
-0.0124782333624
2.39429268649e-05
-2.74126779123e-05
0.0124620758612
3.58252775914e-05
3.08958966072e-05
0.0124820992454
-2.49886593741e-05
-2.59607294563e-05
0.0124146769415
1.1443264339e-05
1.15057420501e-05
-3.21188374838e-05
0.0124027001557
-9.73465163533e-06
4.0039500937e-05
0.0123975436481
1.23398152238e-05
0.0124674664804
-2.4476942993e-05
0.0124436329214
1.66045800584e-05
-2.81386749078e-05
3.24673833722e-05
2.18470820262e-05
-0.0124488071557
0.0124391918415
-2.66267892994e-05
1.03054613836e-05
-0.0123735019264
7.69868846162e-06
0.0123390745301
1.60987901832e-05
-2.01533699353e-05
-9.08231378028e-06
2.98095673207e-05
0.0124358534977
1.14529137971e-05
-2.53907436842e-05
-0.000425467031117
-0.0495649981055
0.0494988504441
0.000515296511081
-1.76306093132e-05
-8.53535570608e-06
-8.51898439155e-06
-1.31451796017e-05
2.47903183175e-05
-0.000520065451507
0.0499541469313
-5.17974719809e-05
-4.67981225487e-05
-4.61030998028e-05
-4.77699606468e-05
0.000164489866689
-0.0498605851135
0.000454790483493
-0.000808889126235
-0.0501129835495
0.0503836851582
0.000643701687793
-7.22414480874e-05
-5.47942402902e-05
-5.0414387859e-05
-5.80081972559e-05
0.000129944177074
-0.000482358741027
-6.12974792849e-05
-6.97021417268e-05
-6.52944856574e-05
-6.1424657333e-05
0.000215202922518
0.0504287362114
0.000351893841659
-0.0502557567785
3.16693420066e-05
-0.000822931918936
-0.0492890621285
0.04700622048
0.00246727235436
0.000583497552464
1.01019558203e-05
-1.08531215326e-05
2.33508741097e-05
-1.64633418152e-05
-0.04183557458
0.0339518365832
0.00335071779412
0.0069049135565
6.29851378202e-05
5.2317660924e-05
8.71884670131e-05
-0.00256723698696
0.000102112463754
-0.00184636086482
0.04935139968
0.00368628771832
3.04767164339e-05
-2.85446344359e-05
5.40781255871e-05
-0.0525283015978
0.001180563689
9.09912566427e-05
-0.00382914081155
-0.0440469303403
0.035469432463
0.00324981303828
0.00897668548145
3.2953719695e-05
-5.00692423961e-05
0.000106289315261
0.000193875038352
-0.00356250904589
2.54009774531e-05
-9.43813462997e-05
0.000109415638189
0.0346778077692
0.00528676628682
0.00544114255326
-0.0420775335586
-0.00719758842129
-0.0116679000045
0.0062508594364
0.00540562536686
0.00463858109649
0.00302066755928
-0.00727938219702
-0.000941641509568
-0.0127104016614
0.00320118454085
-0.00366756618625
-0.00064455676779
-0.00395828582519
0.00210476402426
-0.00341058789849
-0.00356762559918
-0.00714514201839
0.00310470288073
-0.00144489018941
-0.00107305193088
-0.0023827927647
0.00547970016753
-0.0072591726973
-0.00374566793565
-0.00388027710876
-0.00477553788736
-0.00407091954215
0.0101523575629
0.0125016649809
-0.00234602947814
-0.00439679904432
-0.00424529142761
-0.00022513636496
-0.00308599232137
-0.00203827086755
-0.00957786613811
-0.00838959036458
-0.00965513547311
-0.00965317299036
0.0206039654079
-0.00154283929341
0.000193443010151
-1.299841351e-05
-5.6418657173e-06
-5.97644208404e-06
-1.06846520147e-05
0.0493641392646
5.47080514902e-05
-4.6870578987e-05
-0.0495299023647
0.0494459215199
0.000297657855152
-6.41561761034e-06
-4.60501067558e-06
1.89185614445e-07
-6.22320429872e-06
3.30206192812e-05
-0.0495658319409
-1.97036850356e-05
3.61688518514e-06
-0.0124392445747
-6.91356390831e-06
0.0124364696653
2.57270092752e-05
0.0124516480362
3.79444762735e-05
-2.47474148403e-05
5.65647138738e-06
-1.71724170821e-05
-0.0124535887824
2.0208250624e-05
1.36601065112e-05
2.06422115201e-05
1.35968963069e-05
-0.000262109673888
0.0123431762382
0.0123181581621
0.0122840324461
0.012336613524
-6.73922697116e-05
4.7726730629e-05
-1.67714893482e-05
1.15554433854e-06
-2.22092925802e-05
0.0124416743488
0.000366753924587
-2.57904550337e-05
-1.61478605988e-05
-1.79598463875e-05
-2.2866465763e-05
8.41280984461e-05
-0.0496353622928
0.0497096967926
-2.99518276382e-05
-2.91502817429e-05
-2.55341993814e-05
-2.96387863166e-05
8.80877523144e-05
-0.0497154553426
0.000398984591589
0.0124647254383
-2.56757154766e-05
1.68823348965e-05
-0.0124641553669
4.62710508394e-05
0.0124907791376
-4.35005233546e-05
3.74003370076e-05
-4.31543174499e-05
-0.0124845201467
4.28173361895e-05
0.000716541736173
1.51736273395e-06
-7.4838383749e-07
4.08257028772e-06
-2.27326082659e-06
0.0495499660659
-0.000183030793987
-0.000159394285333
-0.000179879252402
-0.000153446605363
-3.88652930076e-05
-9.06445454703e-06
-2.77108015748e-05
-1.87469210079e-05
0.0497437042253
-1.86878546088e-05
-2.58088733601e-05
-1.68473000221e-05
-2.34569826379e-05
4.62872289668e-05
0.0499144437224
0.000642054116884
-1.12565517949e-05
-3.16226825547e-05
-1.38040316735e-05
-2.36550689996e-05
-1.55383382067e-05
2.00190559373e-05
0.0124581409905
6.56903801344e-05
0.0124465019728
-2.93972849785e-05
2.25228530821e-05
-0.0124460094231
9.62011786181e-05
-8.98483894857e-05
5.34350229143e-05
-7.04973399925e-05
4.8781408142e-05
-4.02201750348e-05
0.012499104123
0.0124946036157
9.08603851851e-05
-6.46937528441e-05
6.15737326087e-05
-9.68987476273e-05
-0.0124853426769
0.0502084122806
-3.59639061853e-05
-2.11117058503e-05
-2.13559708057e-05
-2.52615044901e-05
-0.000934561536662
-6.42779422829e-05
0.000947250515568
-2.00699285503e-05
-4.74525507561e-05
-3.13304381668e-05
-1.49378549711e-05
0.050799917391
-0.000151402447802
-0.00127329038032
6.93104006169e-06
0.0124175000076
0.000113129509602
-0.000107773347894
-0.000176144916162
0.000105425388817
-0.0124823966742
0.000198526532606
0.012523629997
-0.000168706726641
0.00010301257349
-4.76613072904e-05
6.13031667424e-05
-0.000110517603285
0.0124885853679
0.000128813741111
-0.000166346528358
0.000121044471624
-0.000121806875842
-0.0124974925129
0.0125362002315
0.000542738843266
-5.61331295014e-05
-5.44537445303e-05
-4.59359731905e-05
-5.33972425846e-05
0.000150669733381
0.0502043817145
-4.70267580927e-05
-4.8093004185e-05
-4.43839160172e-05
-4.49134911884e-05
0.000125166702712
-0.0500455395785
0.00044308137372
6.38383219874e-05
0.0125158676041
7.76216231759e-05
-0.012502078723
0.0125058231158
-7.27130399449e-05
7.15050039226e-05
-0.0124984206206
8.48197628861e-05
0.0125046241298
-8.54913975719e-05
6.62612519024e-05
-3.88454286633e-05
-0.0124928439691
4.66036227264e-05
0.000680766020582
-6.62585232799e-05
-7.16959099585e-05
-5.38637410005e-05
-5.58900912264e-05
0.0507369382816
0.000161173449662
0.0503924893933
-5.30957425593e-05
-5.47188825891e-05
-4.40852180606e-05
-4.98945702418e-05
0.000175553334623
-4.38040145762e-05
-4.06189550019e-05
-3.6095041037e-05
-3.40630801545e-05
0.0506480200605
0.000500102094963
7.955496868e-05
7.70880439761e-05
0.0125084956769
0.000114248961219
-0.000165748464766
0.000116721962518
-0.0125060934772
0.000140134533214
0.0125442878706
5.23157799223e-05
-0.000172214332808
9.45033510406e-05
-1.71585942906e-05
0.0125475143924
5.53239554237e-05
-0.000123865632209
6.67444783487e-05
-3.49582874771e-05
-0.0124944148991
0.0125315708702
0.000101482205532
0.0125568448844
9.86083881043e-05
-0.0125106428147
5.30724424044e-05
-0.0124963423402
0.0125403426942
-0.000114746327108
7.34256786134e-05
-0.00459121539422
-2.46849211483e-05
-1.30525074196e-05
5.55203542449e-05
0.0454283344646
0.00724948759616
-0.0462561592021
-0.00186873308225
0.0472553013117
-0.0011891125243
-9.73276885241e-06
-1.28964372883e-05
5.71814217716e-05
-0.0478402880717
-0.00287354253074
-0.000687220997638
-3.29030804069e-05
3.27906156006e-06
-1.28217895279e-06
0.00251323859797
0.0446130117964
9.30839846787e-06
0.00210775516263
0.00221047012936
0.00115378597964
0.000742353941439
0.00287857382726
0.00162129180836
0.000610386621972
0.000306101094858
0.00116496277122
0.00388427400086
0.000975002024611
0.00256412947249
0.00464550693807
-0.000177291423112
0.00407091795418
0.00228825272686
-0.00130194633897
-0.000238673564126
0.00169932829026
0.00603450720022
-0.00687538049489
-0.000468118723513
0.00407063081246
0.00313128791705
-0.00301618248418
0.00312903286217
0.0050253315506
-0.00630373393584
0.00115859661323
-1.84319215935e-05
1.3798827492e-05
7.83283574772e-05
-0.00242297402565
-0.0493135119659
0.0517452254939
1.22501734963e-05
-2.22027230756e-05
9.49108747734e-05
-0.0512491866548
-0.00108933828426
0.00162386084071
0.00306249586723
0.00401959127962
2.31422051515e-05
4.13385224649e-05
-1.708519207e-05
-0.00201426861484
0.0487248438044
0.00352182531487
-2.25593146812e-05
2.8599916561e-05
3.37212230057e-05
0.0053381449943
0.043662482104
0.00265136681336
3.73841730843e-05
1.04746152996e-05
2.55197955146e-05
0.00148155339759
0.00611704204296
-7.64178307868e-05
0.00606863746923
0.00263958361326
0.00456361189598
0.00768342778529
-0.00371467387185
0.00544897173137
0.0081277574984
0.00286483525584
0.00578063979395
3.83878639791e-05
5.40955673658e-05
7.11569259362e-05
0.0264068007087
-0.00141988535055
0.0351242029121
0.00783592318638
2.50703592459e-05
4.69587207803e-05
9.96653340042e-05
0.00597909455169
0.00422051203958
3.65125416122e-05
-3.21545114899e-05
0.000104677289887
0.0275034819293
0.00404334956448
0.00485113590774
0.00425245286212
0.00470581392274
0.00625172381477
0.00711853057937
0.00494675699239
0.00747689729486
0.00160743017594
0.00615264237509
-1.73179466065e-05
3.54289171878e-05
0.000102286329031
0.00556875873197
0.043686444425
2.67586510212e-05
-5.60117088528e-05
0.000131267422088
-0.0488451423655
0.00101071241672
0.0110532751969
-0.00915144744921
0.00710260256929
0.00766551855444
0.013268905974
0.0227715721711
-0.0203191560477
0.00652879189496
0.00508415012887
0.00603267147994
-5.96624005704e-05
2.24532226445e-06
0.000171909383057
0.0282976061557
0.035560376515
0.00756349081911
-6.3958066479e-05
3.18005416029e-05
0.000108712597733
0.00501357550577
-1.10107844986e-06
-0.000102389360133
0.000173964766683
0.0285228546819
0.00691647188131
0.0133401411866
0.00647454899905
0.00410649538374
0.011849411674
0.0210320142323
0.00612873277682
0.0161279853715
0.0043596036958
0.012386661042
-1.97669786077e-05
-2.47129778195e-05
3.92281278512e-05
-0.0123943693032
3.48520716789e-05
-0.0123793841866
0.0123579421042
-1.54264837159e-05
-2.91763392188e-05
4.47681347821e-06
2.57892756048e-05
-0.0124651106113
-2.69976615704e-06
-0.0124613590265
2.23321230549e-06
0.0124419619102
4.89310658417e-05
0.0123641545165
-1.20612584464e-06
-0.0124535115836
-1.25161406981e-05
-0.0123977629392
0.0123941046531
5.48935126564e-05
-1.60089005458e-05
-0.0124001707924
-6.1856662877e-05
-0.0123963408415
0.0123819460172
7.69650986383e-05
-8.67330035481e-06
-0.0124641752854
0.0124482314114
2.15505601849e-06
-3.03381499435e-05
3.07622969868e-05
-0.012469188443
0.0123730126925
6.49541459901e-05
-0.0124104136677
-0.0124545801537
-0.0123548829144
9.04112834153e-05
1.59251360549e-05
-7.16281671593e-05
0.0123404043656
-6.73355802233e-05
0.0123736353694
9.09602447388e-05
-2.6967971731e-05
0.0124306506053
-1.03466524955e-05
-1.07025416167e-06
-3.81962748643e-05
5.83824882819e-05
0.0124259447068
-5.55055115193e-05
0.000113437140086
0.0123634314494
-1.81009111819e-05
0.0124254545062
-6.60287902774e-05
0.0124255268853
-4.14899359039e-05
7.85204837484e-05
-0.012422279856
-0.0124081835522
8.47251612664e-05
0.0124011566118
9.60332667481e-06
1.785145775e-05
-0.0124794034536
2.23577122194e-05
-0.012488705977
4.77191195246e-05
0.0124785553402
-0.0124176318057
9.02547345701e-05
0.0124195147353
3.77593404496e-05
-0.0124718137114
0.0124395307413
9.19497669643e-05
-4.96774931935e-05
-0.0124332772118
-9.40059573508e-05
-0.0124428534588
0.0124460454165
9.88965651619e-05
2.6149912238e-05
-0.0125018906389
0.012492805621
2.35388781591e-05
-6.39231178501e-05
-0.012506639854
4.00970620467e-05
0.0124368376133
-0.0124480978677
9.10716239043e-05
-0.0124828882972
-0.000122316276279
-0.0124130449644
-2.41035131296e-05
0.0124161602153
0.000125865278172
0.0123978795961
0.000105330963227
1.3882838034e-05
6.95133399961e-05
0.0124432849628
8.76960080425e-06
0.0124663554163
5.86403509951e-05
0.0123943613557
0.00010795346416
0.0124670370869
6.81650742823e-05
-0.000144752854267
0.0124304641115
-1.86896994128e-05
0.000150446219075
-0.0124006550462
0.000173089602719
0.0124203034316
-0.000170935824861
7.33241440904e-06
9.05927976448e-05
-7.75097494444e-05
2.48253584189e-05
-0.0124417503104
0.000100939350653
0.0124534708936
-0.000139473585102
0.00017409682039
0.0124519695288
7.99546729834e-05
-0.0124340246721
0.000127299539545
-2.94242254879e-05
0.0124432248334
-0.000104506629297
0.0124571861141
0.000116145501123
1.07206598072e-05
0.0124783065659
3.75419527816e-05
-7.05573259783e-05
0.0124933080859
6.75308261905e-05
0.0124673213646
0.000131418557011
0.0124803301032
0.0124592322665
0.000153613061252
-3.02624426234e-05
-0.000166320690796
-0.0124754533999
0.0125031460963
0.00016858908722
2.82326177703e-05
-0.0124645244354
0.0124777455771
2.83496237531e-05
-9.09066392164e-05
8.09218104569e-05
0.0124816161211
0.000150158532645
-0.000232325513949
-0.0124731955814
-7.48850590223e-05
0.0125250931439
0.000234438509478
2.06884182099e-05
0.0124473682865
0.00020602206212
-1.72551674975e-05
-0.00020887059367
1.35346844576e-05
0.000137642113425
0.0124577874279
-0.000128703519195
2.74826981968e-05
0.0124684429377
0.000122679371377
0.012490554509
-1.1171927615e-05
-0.000250846756005
0.000201284847008
1.07500707775e-05
0.0124828914281
0.00013530626502
-0.000249890657379
-6.08135435026e-05
0.0126033193566
0.0002568928783
-2.47161834268e-05
-0.0125570532401
0.000304953166387
0.012675158385
-0.000318006343438
3.73537449264e-07
1.3436453774e-05
0.000154403497131
-0.000154114733888
-0.0124913387362
3.09314665751e-05
0.000170381528377
0.012542940984
-0.000278975560038
-2.34852914397e-05
0.000156677126344
0.000282925964529
0.0126825473075
-2.58220369462e-05
-0.0125036376279
0.000225397358871
-8.12509385548e-05
0.0125578356915
-0.00018753172482
0.012539170745
0.000191703900999
2.95407020275e-05
0.0124855400191
4.62710014127e-05
-0.000139540152921
0.0125117318765
0.000116988326178
0.0125774399667
0.000208202959883
0.0124995162394
0.000249022521617
-7.72375107284e-05
0.0126228189425
-0.0126068371303
-0.000238676435759
0.000235247142089
0.0126839495232
-0.0125143498563
3.88432081114e-05
0.012561853115
2.94284595196e-05
-0.000170111490511
0.000123323666134
0.000218077681467
0.0126920491177
-0.000121225439347
-0.0124809121072
-5.65322047182e-05
0.0124969767375
0.000109928047417
0.0124769575837
0.000118845441677
-0.012462452403
4.76098878955e-05
5.421633205e-05
0.0125117536592
3.07934264406e-05
0.012496802995
-0.0125234832874
4.49959563857e-05
0.0124886800116
-0.0124813195027
0.000102324150092
0.0125037413785
4.46773939607e-05
-0.000129861280964
0.0125223268066
-7.63787023839e-05
0.000124682537221
-0.0124960844704
0.000155435691565
0.0125262853615
3.30020124649e-05
4.38986633556e-05
5.62349034111e-05
-0.0125218412649
6.09060815176e-05
0.0125248580358
0.000136144271674
0.012544468827
5.17688898332e-05
0.0125360356866
0.000125603326616
-7.52369401125e-05
-0.0125087521324
-0.000118091544567
-0.0125290186986
0.0125548017129
0.000110532701671
4.90009735751e-05
-0.0125332398544
0.0125330972695
2.57477715721e-05
-8.55039036686e-05
-0.0125374836196
4.84502258921e-05