/*--------------------------------*- C++ -*----------------------------------*\
| =========                 |                                                 |
| \\      /  F ield         | OpenFOAM: The Open Source CFD Toolbox           |
|  \\    /   O peration     | Version:  v1906                                 |
|   \\  /    A nd           | Web:      www.OpenFOAM.com                      |
|    \\/     M anipulation  |                                                 |
\*---------------------------------------------------------------------------*/
FoamFile
{
    version     2.0;
    format      ascii;
    class       volVectorField;
    location    "2";
    object      U;
}
// * * * * * * * * * * * * * * * * * * * * * * * * * * * * * * * * * * * * * //

dimensions      [0 1 -1 0 0 0 0];


internalField   nonuniform List<vector> 
28582
(
(0.805991473152 -0.00251986610507 3.34233873034e-05)
(0.804646739634 -0.00288128792103 0.000105295565135)
(0.806149338502 -0.00233299330188 8.20339972606e-05)
(0.804726833352 -0.00282779804044 0.000337349646313)
(0.806566513762 -0.00268087839513 -0.000331924362233)
(0.80504202692 -0.00311135361368 0.000514068343546)
(0.808000251729 -0.00228383322875 -0.00126816269642)
(0.806165857164 -0.00325166492284 -0.000362466658167)
(0.585296027073 0.056565960398 -0.000708838489266)
(0.638298110422 0.105824418126 0.00356575435556)
(-0.0306083511875 -0.0399791681501 -0.00236121673628)
(0.807063070974 -0.00285796229451 -0.000791573968659)
(0.801876172572 0.00113800110682 -0.000661083422864)
(0.801721608869 -3.1478819076e-05 0.00124309657589)
(0.805203416658 -0.0035310380685 8.60839950734e-05)
(0.805182345816 -0.0035696789633 0.00159683033448)
(0.801956209465 0.000591928779012 0.00116289734757)
(0.804884850223 -0.00431181358518 0.00234558474699)
(0.804917870407 -0.00407998193815 0.00213721382727)
(0.808694208008 -0.00285784048591 -0.000377412030188)
(0.803370460373 -0.00281499288221 0.000113040831131)
(0.802511302623 -0.00269606311087 3.76459337871e-05)
(0.808774485729 -0.00339117286425 -0.00021661395537)
(0.80329639029 -0.00283338913887 0.000482029346351)
(0.802316746834 -0.00273258802847 0.000284673123101)
(0.809646920561 -0.00362362088681 -0.000493903435904)
(0.803308347033 -0.00309241388607 0.000793265382142)
(0.811873931338 -0.00263051093309 -0.00263305047501)
(0.804102124824 -0.00359397204894 0.000359926822896)
(0.660215022864 0.102475832002 0.00482519474072)
(0.019243150577 0.000628103309439 0.0333854666503)
(-0.0392696444089 -0.0269330005232 -0.0245882158834)
(0.810833309119 -0.00400672902603 -0.00249815538963)
(0.809705005455 -0.00266811019998 0.00115179491136)
(0.801354491825 0.00246608268741 -0.00424990171033)
(0.800376799085 -0.00137995550352 -0.00012187884384)
(0.810469897622 -0.00110554228238 0.000626884194098)
(0.802939009583 -0.00358863663244 0.000671663351592)
(0.804288826589 -0.00359599413856 0.00180085120166)
(0.803258286169 -0.00342838979628 0.00189063540889)
(0.804281927596 -0.00438087954433 0.00224657266171)
(0.798475751673 0.0010145814287 0.00113487653032)
(0.804227715752 -0.00421664565658 0.0023287922532)
(0.803664287189 -0.00287782501797 0.00221438500845)
(0.601470594433 0.0773283364529 0.000587438823123)
(0.650109791457 0.11174002567 0.00370936324229)
(0.0745765823403 0.054991068276 0.0167426820901)
(0.0586646241592 0.0367548615303 -0.115193789596)
(0.62342084891 0.0913670065824 0.00303962664533)
(0.0254850098605 0.0209035851644 -0.113180636233)
(0.808796077706 -0.00155124391048 -0.00133745156885)
(0.807963391483 -0.00323632357704 0.000624001225879)
(0.803074001934 7.92296710553e-05 0.000432468146892)
(0.802095080257 0.00119597968823 0.00217282040097)
(0.808558435869 -0.00282535743975 0.00093238100759)
(0.801353604656 -8.26127962895e-06 0.00118824043031)
(0.808718870474 -0.00193997426514 -0.000597957959205)
(0.80748094568 -0.00397665166645 -2.85808294489e-05)
(0.807196006539 -0.00282838150061 0.000987509508676)
(0.802303762786 -0.000937545421627 0.00200536479433)
(0.802986573492 -0.000595852899107 0.00112775998737)
(0.807263926959 -0.00401579217921 0.000854844151625)
(0.802435028386 -0.00139488279637 0.000182054443835)
(0.807809645788 -0.00274047971674 0.00123933789135)
(0.805827064401 -0.00433018126113 0.00138873283391)
(0.806730641166 -0.00286799710301 0.000879402107895)
(0.801698848336 -6.43207756063e-05 0.00195043815109)
(0.802177885607 -4.66918474643e-05 0.00181970977679)
(0.806466287995 -0.00400674106698 0.00186068188584)
(0.801397211701 -0.000734035037301 0.00103598605704)
(0.806113826282 -0.00335474279779 0.0018678055562)
(0.804866799161 -0.00344137122048 0.00160767282216)
(0.800616793628 0.000577215196652 0.00139276333295)
(0.800957203883 -0.000241122259477 0.00195523727997)
(0.80552358 -0.00448361998304 0.00145891297273)
(0.801038730394 -6.97005854404e-05 0.00193634343806)
(0.801422401038 -0.000919036820485 0.00120921375865)
(0.80540340584 -0.00353873204006 0.00199400562274)
(0.804714685855 -0.00325721179017 0.00153793312861)
(0.800921141859 -0.000570842878252 0.00140723669928)
(0.800340358967 -0.000232355179673 0.00011620299967)
(0.80537313762 -0.00376677875487 0.0014707438896)
(0.801272569295 0.000425955010557 0.000980692469481)
(0.805257025078 -0.00306522222781 0.00209809169764)
(0.801117421574 0.000160849229404 0.000638485217644)
(0.558618901194 0.0352450363953 -0.00151275083187)
(0.170333413072 0.0261414677662 0.0132701235161)
(0.548305965265 0.0839619173545 -0.000547765392527)
(0.567945187582 0.0867137705548 -0.00101406739048)
(0.0668338730331 0.0390480124224 0.0889855354129)
(0.0831664242955 -0.0223958478443 0.0757560546096)
(0.653443106133 0.104233166563 0.00323124452888)
(0.0940817963043 0.0856219766696 0.0650637109238)
(0.0493660471563 0.0609307823076 -0.0745355887505)
(0.643220319403 0.093753206843 0.00393036107932)
(0.202999215406 0.0546849766899 0.105908130695)
(0.670005542214 0.108934496488 0.00514270475206)
(0.0737005568757 0.0547788431566 0.00404022390994)
(0.81142273351 -0.00263007737615 -0.00153729319657)
(0.812222738489 -0.00149310159932 -0.00508412390054)
(0.803545793453 0.00059053808787 -0.00345852991886)
(0.801061962472 0.00161772185507 0.000307881540111)
(0.812673443064 -0.00196510190818 -0.0048445743009)
(0.812081357822 -0.00217213298958 -0.00134006554556)
(0.799289929331 -0.000100447664857 -0.000785765152591)
(0.811043192473 -0.00421699340872 -0.00335656291284)
(0.811012014706 -0.00377373145205 -0.00126317779939)
(0.801686738114 -0.00227163126364 0.000501189971759)
(0.803559385427 -0.00181259072599 -0.00255418505881)
(0.811829568154 -0.00340572571522 -0.00151965091695)
(0.81117462163 -0.00454776568075 -0.00317061461315)
(0.801734238289 -0.00291089581222 -0.003133192966)
(0.801346945623 0.00160886997601 0.000879691450111)
(0.800325968704 0.000317675203784 0.000193556951145)
(0.809850992845 -0.00139174929332 0.000761922174407)
(0.810415652084 -0.0026547487663 -0.00214005302028)
(0.803414533773 -0.000731382198405 -0.00199205709839)
(0.810610845364 -0.00302460937273 -0.00179076927893)
(0.801512291346 0.000547684423257 -0.00273302237335)
(0.80456036875 -0.00359143986174 0.0020241510863)
(0.800487691315 0.000477614188527 0.00197036206857)
(0.800258723006 -0.000348340437685 0.00165676395263)
(0.803702580267 -0.00461968947732 0.00140840252858)
(0.799575490716 5.6251558393e-05 0.00268562547405)
(0.803699938984 -0.00403720047001 0.00283283866403)
(0.799611768607 -0.000832294950986 0.000649059558107)
(0.803581675142 -0.00452728411761 0.00157517942381)
(0.802559716267 -0.00356491721653 0.0016987525902)
(0.798894761406 0.000464446201613 0.00203211013386)
(0.798805114614 -0.000140512777835 0.00211118978771)
(0.803136156151 -0.00395263312656 0.00247136236252)
(0.802926645833 -0.00395893225059 0.00264329218568)
(0.799555629133 -0.000799573605198 0.00103499751846)
(0.804266393362 -0.0031248504445 0.00150450293396)
(0.804380718362 -0.00338769940161 0.000960497061132)
(0.800156371275 -0.000837942600528 0.00158739960698)
(0.800275245242 -0.000716720217997 -0.00028064822499)
(0.800171738559 -0.000101483774577 0.000493365976116)
(0.803747617285 -0.0038432991132 0.00148808761657)
(0.799414178324 -0.000135227483124 0.000531551594671)
(0.79922398053 0.000262291918496 0.00113223002582)
(0.798194442096 -0.000578500284549 5.81904996137e-05)
(0.803115637983 -0.00297428839963 0.00156842391381)
(0.803651442612 -0.00363731346747 0.00139554817442)
(0.798882022172 -0.000663849991303 0.001685106335)
(0.803215328846 -0.00379176737148 0.00236613237456)
(0.799348181748 7.20677874424e-05 0.000553921847777)
(0.801933167911 -0.00290002343762 0.000635615093788)
(0.801665937711 -0.00339229756534 0.00047738401353)
(0.657859284277 0.104165808487 0.00597106218195)
(0.00789519950428 -0.0306003242013 0.0130236491748)
(0.808749414837 -0.00356352424028 0.00190288329477)
(0.802173478291 -0.00169110036903 -0.00138909716492)
(0.802011099467 -0.00310314343989 0.00180978259455)
(0.800733273693 -0.00281816079624 0.00201096025221)
(0.798290550394 0.000747013813832 0.0016479900958)
(0.798052629819 -0.000979926402743 -6.4741635467e-05)
(0.795815910049 -0.000598112825146 0.00149298530828)
(0.800021139918 -0.0024916038639 0.000847809751489)
(0.799009929455 -0.00208579370049 -0.000586176460412)
(0.795339831805 -0.000421943575351 0.00176706502033)
(0.791511871695 -0.000390086519347 0.00173546614935)
(0.568069140374 0.0479185935229 -0.000205692457679)
(0.621282049954 0.0715662327436 0.00447731789098)
(0.574806726592 0.0505734160786 0.00546330064347)
(0.0922498786773 -0.0270638501936 0.0834722091329)
(0.249396293531 -0.0113655780387 0.127350922979)
(0.210405306717 -0.0399040464671 0.147266751501)
(0.503286517723 0.0198674359456 0.00609298288112)
(0.471405176184 -0.0058892237338 0.00602789601091)
(0.809000322097 -0.00431282958018 0.00109979582292)
(0.809231574626 -0.00248689754895 -0.000326409966062)
(0.802207636397 -0.00270008515124 0.00106909138565)
(0.80335977498 -0.000773633448268 -0.000555252818814)
(0.809725410399 -0.00407670646958 0.00101713675304)
(0.801215412062 -0.00183677980614 0.000469317314006)
(0.809154657736 -0.00268876811582 0.000129969680085)
(0.801281313245 -0.00373200765723 0.00153159819698)
(0.802239732204 -0.00353491631344 0.00187708135012)
(0.79724699139 8.3020081567e-05 0.00242501016495)
(0.798032230104 -0.00024052603807 0.00178308026917)
(0.801219489301 -0.00365112871378 0.00254954860448)
(0.802228741056 -0.00379494890565 0.00252392715014)
(0.797189026337 -0.000703933378027 0.000838234591574)
(0.801577298345 -0.0029835605945 0.00193976130715)
(0.802826868342 -0.00294462929945 0.00127245087046)
(0.797958102013 -0.000849382471682 0.00196122805932)
(0.797575428697 -0.000344086841741 0.00144214036713)
(0.802474603843 -0.00371204720655 0.00276068197686)
(0.7969322098 -0.000312334769696 0.000959036064262)
(0.802341260047 -0.00238973880457 0.0024699905996)
(0.801116171828 -0.00261858342648 0.00173879081499)
(0.800472120622 -0.00205406912856 0.00237062817707)
(0.795901041727 -0.00114507024645 0.00179573450466)
(0.796681171935 -0.000135421602428 0.00191774598035)
(0.800165776441 -0.00256320808307 0.00233722774582)
(0.796706187841 -0.000375720577343 0.00105682433669)
(0.801371206664 -0.0019755610084 0.00283781671983)
(0.798103316008 -0.00187035368463 0.00150621777326)
(0.799540952485 -0.00175914927736 0.00227928520063)
(0.795012480777 -0.000947996190239 0.00139388728531)
(0.79428107827 -0.000578535155776 0.00160922622638)
(0.799338558686 -0.00224883861425 0.00151740903131)
(0.794134195496 -0.000926525554227 0.0013164249272)
(0.79840589713 -0.00174202498497 0.00201045928687)
(0.797123307234 -0.00189096248295 0.000756645126517)
(0.796414000804 -0.00151208376086 0.000509519066461)
(0.79100250186 -0.00024440730912 -0.000398466815316)
(0.793176967218 -0.000839487689107 0.0012470391661)
(0.796203763264 -0.00142896064955 -0.000485389518136)
(0.792738532767 -0.001038853867 0.00124907245106)
(0.797542844891 -0.00180518941281 0.00100446976947)
(0.793755105731 0.00745149558371 -0.000371203341582)
(0.799009927665 0.0079748114412 -0.00263419431178)
(0.803775285184 0.0118656644092 -0.00275487952648)
(0.805110601608 0.00669160411696 -0.00329805602021)
(0.76239431526 0.0334813044205 0.00281210017421)
(0.600844626663 0.0420840091312 -3.87449966355e-05)
(0.810212254561 0.0294469147909 -0.000639628307229)
(0.640111805025 0.0625133431394 0.000884009212106)
(0.644141300211 0.0622064503752 -0.00267949132311)
(0.00323264605787 -0.0246130762898 0.0204385552899)
(-0.0423493643427 -0.0383890714805 0.0305039138008)
(-0.0172398710974 -0.0521719857562 -0.0292937709764)
(-0.00971746533092 -0.0637140120956 -0.0197027867868)
(0.021334145366 -0.0184902827628 -0.0176945813163)
(0.0696895126604 -0.00589094225164 0.0896601809986)
(0.791257106022 0.00190600036628 -0.000516898128622)
(0.792276039622 0.00395603946615 -7.40933469481e-05)
(0.796048269123 -0.00112621031825 -0.000324210086305)
(0.797039045301 0.00193869578335 -0.000355106638921)
(0.790704141917 0.00545097368356 0.00178069047257)
(0.796884857981 0.00244006455561 -0.000154538452757)
(0.794264491899 0.00514550717098 -0.00105459532496)
(0.79595008673 0.00615937683377 -0.00113186695926)
(0.7977147296 0.00281872900513 -0.000999275395696)
(0.799230800502 0.00293307496839 -0.00225360591029)
(0.794108511495 0.0111749625861 0.0016488293556)
(0.796291788152 0.00830658866637 -0.000227119653381)
(0.798052279922 0.0111200852882 0.000181311251528)
(0.797853740409 0.00365731602259 -0.00112939153854)
(0.796500190581 0.00616071779408 -0.000990539631935)
(0.799698525506 0.00304067527078 -0.00260767916973)
(0.799369145174 0.00597020267493 -0.00305650035723)
(0.801527000757 0.0149333315409 0.000762181988473)
(0.806408652986 0.0179649995163 0.00139179450705)
(0.796222780415 0.00693080727547 -0.000204249964001)
(0.800227273179 0.0121291832637 -0.00553554398763)
(0.799699721007 0.00709377750893 -0.00251489084876)
(0.801319649295 0.0078951036148 -0.0060364924721)
(0.800698380968 0.00971827152331 -0.00240175203702)
(0.801964905577 0.00800553367088 -0.00164402515529)
(0.800751457946 0.00426368499964 -0.00304818221385)
(0.800080216035 0.005958961607 -0.00347503661637)
(0.799884665996 0.00299755404224 -0.00358755904244)
(0.808322243088 0.0128885242675 -0.00235478382048)
(0.804564099047 0.00909686526081 -0.00205093252786)
(0.807601637813 0.00929989569244 -0.000525876656849)
(0.80073935433 0.00672649602431 -0.00329878320037)
(0.8019222232 0.00892192596198 -0.0056456498002)
(0.801678650124 0.00200892630655 -0.00458628302772)
(0.800907472762 0.00315146367493 -0.00412778961435)
(0.802160873465 0.00495083379954 -0.00467757012298)
(0.801131324489 0.00401086625682 -0.00310275554051)
(0.730912279194 -0.0997668208931 0.00115717572465)
(0.753384000774 -0.0471235231992 -0.000681332394689)
(0.733393307533 -0.00370726766856 0.00430995422365)
(-0.0202807909006 0.000335472449689 -0.111447943279)
(0.0206345787342 0.00557715930237 -0.0633696949906)
(-0.00427069699115 0.0558567750457 -0.0579720669896)
(0.0361050221866 0.069310772283 -0.0278618815029)
(0.0208908755463 -0.00351184595903 -0.0150947627785)
(0.107100339441 -0.00443476085784 0.131478599296)
(0.0371483155282 0.0625820569541 0.041213590559)
(0.0961269824921 0.0522020058047 0.134626405792)
(0.781670995342 0.0116624529559 -0.000680001013404)
(0.812275802128 0.0249133555467 -0.00151294973223)
(0.709505770023 0.0436656455357 0.00177465330679)
(0.795298812223 0.0400990641873 0.00211702076981)
(0.741490647491 0.0577164424115 0.00158543580156)
(0.00539436730624 0.0573145531342 -0.0101260750611)
(0.03904924796 0.0711201469799 0.0749643567285)
(0.0815932406708 0.128593407515 0.0642472570811)
(0.065042465928 0.122556631071 0.109245635054)
(0.4854026745 0.0224971295078 -0.00470106744608)
(0.632463933201 0.0703771432287 0.000391029677478)
(0.510861001864 0.0702260678398 -0.00196722081735)
(0.0463655583873 0.0445714266713 0.147377777584)
(0.0841313152458 0.0533411442181 0.140920751574)
(0.103530643102 0.112557000314 0.175931199152)
(0.096145275585 0.086204969224 0.144908915263)
(0.750118203845 0.0410033975619 0.000211781332386)
(0.743189767325 0.0237479782123 -0.000488608642881)
(0.151463729754 0.114692078812 0.0886770782397)
(0.201628142176 0.127606564647 0.15050944432)
(0.3420864745 0.131071000322 0.142211269102)
(0.524193612667 0.0765309338256 -0.00339374047265)
(0.651921716842 0.0595123872191 -0.00263153103345)
(0.526829704652 0.105193753344 -0.00161137769434)
(0.209714238426 0.100930113318 0.233565893683)
(0.224642773129 0.0558531908639 0.180107965199)
(0.373737587052 0.116589588473 0.219211940043)
(0.31579468829 0.087474179506 0.186412040452)
(0.793029294935 0.00206274166532 -0.00136046446759)
(0.791724773704 0.00166752258493 -0.000437909502829)
(0.796984563078 -0.0019247209841 -0.000292334970851)
(0.797001484018 -0.000217080483398 0.000246014750894)
(0.792180257215 0.0027332326394 -0.000195097458358)
(0.797349588036 -0.000907142265397 -0.000916904077782)
(0.792867462853 0.00125563860325 -0.000636805750207)
(0.793502236703 0.00293058388237 -0.000862284645438)
(0.792970851832 0.00437689623362 -0.000559135561707)
(0.79716838885 0.000552308714197 0.000533456775498)
(0.79747283883 0.00202278329482 -0.000355303151314)
(0.792710462154 0.00350422925233 0.000119076997485)
(0.793972310925 0.0037773531916 -0.00041898791612)
(0.797504275265 0.000868882425686 -0.000794043580037)
(0.790617835748 0.00518824202016 0.00105088361605)
(0.792475233709 0.00500425129313 0.000185903997331)
(0.796206482293 0.00110020701009 0.00109493127922)
(0.795876821507 0.00349100548408 -4.42525358382e-07)
(0.791479774244 0.00388214962694 0.00148590360699)
(0.791842254501 0.00661611210259 0.000200413962601)
(0.795525757686 0.00187983421287 0.000713333910195)
(0.795149685513 0.00452527976925 -0.00256619762971)
(0.793984914 0.00521130939243 -0.00131241548568)
(0.798262973785 0.00162300590894 -0.000765976597259)
(0.799053710292 0.00299052487674 -0.00127973670126)
(0.79450670139 0.00429049632661 -0.00113258639916)
(0.795138136202 0.00561806294207 -0.00184873553171)
(0.798735131512 0.00172761486876 -0.00198559230362)
(0.795992710356 0.00533594992084 -0.00295031791842)
(0.796473764015 0.00636676702056 -0.00255838198157)
(0.799764215216 0.00287911347271 -0.00159132615583)
(0.799609461427 0.00331341078373 -0.00181251082396)
(0.796119509917 0.00565970802503 -0.00201529726976)
(0.796594004097 0.0059406854405 -0.00208953489277)
(0.799600631329 0.00325693515982 -0.00258483072245)
(0.794619439798 0.00795013954731 -0.00167100874765)
(0.793823666132 0.00631054952244 -0.00092589512048)
(0.796824284295 0.0040196316155 -0.000844410058105)
(0.798079840292 0.00390833082147 -0.000862088397032)
(0.793571486825 0.00738464126762 -0.000748717818477)
(0.794808347275 0.00676759827371 -0.000934128433117)
(0.798040008028 0.0043904320384 -0.00134609936914)
(0.795559110127 0.00938546588902 -0.000849420957208)
(0.794373608789 0.0110207746549 -0.00110056791336)
(0.796451021209 0.00567725346112 -0.000844691446229)
(0.796663102317 0.0066556868926 -0.00156324508564)
(0.793935661342 0.00914492668115 -0.000301169102201)
(0.796194194648 0.0111936347012 -0.0010777216088)
(0.797171506961 0.00562746815947 -0.000857889498871)
(0.7960800792 0.00796024248452 -0.00197092636282)
(0.79698362282 0.00703968899336 -0.00284853218423)
(0.799135958167 0.00323780739765 -0.000987769377096)
(0.799884299117 0.00457028608191 -0.00223390811962)
(0.795961493389 0.00673840891623 -0.00122338614785)
(0.797574622459 0.00844645002566 -0.00233697921538)
(0.798631626764 0.00450706085169 -0.0015206120599)
(0.797195695763 0.00974367775688 -0.00156242743429)
(0.799133492527 0.0109166684294 -0.00363133998134)
(0.797889650551 0.00609827805708 -0.00147979346237)
(0.798987825389 0.00539724875006 -0.002038884714)
(0.798035444274 0.0106974344888 -0.00159120663034)
(0.798301056176 0.00970596728989 -0.00215022884985)
(0.798616917379 0.00527841797637 -0.00124936882068)
(0.799698280982 0.0149866988897 -0.00372094809945)
(0.79647760356 0.0135981871878 0.000360398298242)
(0.795580222107 0.00825272044894 -0.00109044657995)
(0.796781302353 0.00695532956421 -0.00213785194921)
(0.797906227527 0.0154748693517 -0.000188616975799)
(0.797938082727 0.0126669893994 -0.00165805867161)
(0.798463539978 0.00857782925862 -0.00376967741747)
(0.804516700585 0.0160021665335 -0.00248494513291)
(0.805784221377 0.0204951406401 -0.0044743147925)
(0.797289939368 0.0109451957305 -0.00208296289564)
(0.800558954401 0.0127551898753 -0.00241717714517)
(0.801481564982 0.0175474402051 -0.000802123617282)
(0.799649976817 0.0105949171195 -0.00250540496932)
(0.808012174211 0.0190014849355 -0.00120618715214)
(0.801567462558 0.0145701999582 -0.00458951460749)
(0.801686692919 0.0121571665363 -0.00321840631145)
(0.798556173743 0.00801685183386 -0.00208996220271)
(0.799827851637 0.00848942257384 -0.00254001529186)
(0.799675369216 0.0126542627436 -0.00213285473877)
(0.803268289659 0.0142436995539 -0.00289068055716)
(0.799500201414 0.00919559389943 -0.00371997108025)
(0.806073618979 0.0162597958015 -0.00366100706003)
(0.808778723894 0.0153369768912 -0.00660869658195)
(0.80191008533 0.00843970647655 -0.00236746040467)
(0.799504517464 0.00878456433764 -0.00252010393284)
(0.805676108982 0.0148520457693 -0.00288551369262)
(0.801007011219 0.00967147785811 -0.00302127005974)
(0.809126941876 0.0162508841412 -0.00212688973744)
(0.79915648067 0.00738571965777 -0.00412657263023)
(0.798142644438 0.007755098458 -0.00399527379891)
(0.800826656434 0.00387297014644 -0.00251708855748)
(0.800598956656 0.00376223714298 -0.00202727760909)
(0.798904517591 0.008134028752 -0.00341494384099)
(0.798851712963 0.0069032834304 -0.00303106478106)
(0.80001630836 0.00328972771575 -0.00292647489848)
(0.800758481804 0.00798920016371 -0.0048027010312)
(0.80059249942 0.0103426120063 -0.00473490790802)
(0.800283057109 0.0042540264023 -0.00220244735711)
(0.801512581992 0.00442720215389 -0.00317458489666)
(0.799466044816 0.00915457249571 -0.00301996501206)
(0.801954316447 0.0094081452676 -0.0041239774403)
(0.800880765102 0.00304811644671 -0.00363151405125)
(0.801514117251 0.00801896052361 -0.00452266548991)
(0.802476633336 0.00753595555712 -0.0044403418873)
(0.802085993346 0.00296818271929 -0.00290765955528)
(0.800940926838 0.00419759509143 -0.00210255192402)
(0.802866632706 0.00788131919357 -0.00358410173323)
(0.801787961679 0.00730580139655 -0.00276230223831)
(0.801494732991 0.00414400535801 -0.00367426892275)
(0.80462126467 0.0106604459934 -0.00640924427754)
(0.80296963776 0.0121774106553 -0.00455143173925)
(0.80091522086 0.00598788864642 -0.00277722641106)
(0.800134820143 0.00519054669298 -0.00261292954317)
(0.804590138414 0.01217136107 -0.00376422979486)
(0.803034649826 0.0101389483226 -0.00352147599769)
(0.800178210359 0.00438464202834 -0.00475488865539)
(0.807839539346 0.0103743503157 -0.00639771948009)
(0.809252199735 0.0144446583702 -0.00706020440347)
(0.80039168524 0.00624069088757 -0.00231693507144)
(0.80359247062 0.0072730067697 -0.00271660262225)
(0.806401392592 0.012749668329 -0.00336285786047)
(0.802135009808 0.00408436301843 -0.00480323322741)
(0.810481595138 0.0119237961789 -0.00404151101582)
(0.805174915647 0.00960753580129 -0.00483167890481)
(0.804674954345 0.00741484716565 -0.00537822633773)
(0.800694889782 0.0023533057991 -0.00181114638769)
(0.803088949209 0.00415554265944 -0.00334509607006)
(0.803893127543 0.008365146957 -0.0023983557946)
(0.806414091803 0.00875553839649 -0.00379920912101)
(0.800600450898 0.00452496208067 -0.00404969960837)
(0.807897272239 0.0103224365608 -0.0051300203494)
(0.808936214345 0.00856193225201 -0.00419545384493)
(0.804160787472 0.00295787340236 -0.00237581544623)
(0.801053267981 0.00534069646674 -0.0014014825612)
(0.807604360253 0.00918245978729 -0.00165946601941)
(0.802572445354 0.00569044502065 -0.00433638782674)
(0.810190502157 0.00923053939236 -0.00266792675425)
(0.805842698851 0.00540557610095 -0.00501495087852)
(0.805227160911 0.00765983311002 -0.00629873787879)
(0.803609633947 0.00289477662256 -0.00337522964499)
(0.800767060515 0.0044730391803 -0.00156452069933)
(0.806820708853 0.0070733704544 -0.00471159850484)
(0.805095670335 0.00585508090064 -0.003133333456)
(0.799738249232 0.00226513880174 -0.00356328880368)
(0.808886053507 0.0075196652744 -0.0039718280274)
(0.801363283874 0.00139651154662 -0.000710051721532)
(0.807921083512 0.00678059336029 -0.00196715275462)
(0.806840065973 -0.00423521235285 -0.000239129027881)
(0.804848824808 -0.00422186285581 -5.52440571764e-05)
(0.803221946285 -0.00371293552294 5.52008271373e-05)
(0.801981314773 -0.00222234078084 -0.000204044288297)
(0.802516900854 -0.00197574485061 -0.000398905622634)
(0.801068126713 -0.00424642094126 -0.000484062506782)
(0.807157355202 -0.00482202009169 0.000159211895751)
(0.805197776835 -0.00465659976417 0.000458954702855)
(0.803333254796 -0.00396456158639 0.000644097479706)
(0.801555136376 -0.0022523526572 -0.000454027332495)
(0.802228774827 -0.00198353584368 -0.00117927865641)
(0.800622742746 -0.00426601163309 -0.00141182083976)
(0.826153018755 -0.000447850963619 0.00851219868933)
(0.805009738466 -0.00369525567406 0.0102105404993)
(0.793499745908 -0.00496983635674 0.00588392746122)
(0.794691081826 -0.0027555389576 0.00239675171188)
(0.797018807929 -0.00146589855063 0.000823269430103)
(0.797942822143 -0.000841676546745 0.000155434795757)
(0.800375190519 -0.000547014541279 -0.000252965685061)
(0.798247463804 -0.000970468457379 -0.000382978706863)
(0.825261550121 -0.0126901530506 0.00320110125972)
(0.809769125545 -0.0149340453254 0.00458238381128)
(0.799652420449 -0.00968508812275 0.00239660629996)
(0.798343213253 -0.00635898806565 0.00100811185791)
(0.798824984331 -0.00403642249384 0.000365568659765)
(0.798904146728 -0.00246870755068 7.8064602345e-07)
(0.80074615083 -0.0016242781898 -0.000320123334095)
(0.798698942038 -0.0027895227403 -0.000422215516775)
(0.814776022783 -0.0078941096745 0.00146854610721)
(0.80771511044 -0.00857277278906 0.00102975117868)
(0.803354393061 -0.00694290280231 0.00070380982994)
(0.801197629444 -0.00507537896423 0.000437932953877)
(0.800460856793 -0.00378933624808 0.000209606357476)
(0.800116617445 -0.00264726693899 -6.66267648466e-05)
(0.801241815199 -0.00206147787198 -0.000319551609866)
(0.799332764267 -0.00392726260985 -0.000437940799075)
(0.811426039267 -0.00495256970027 0.000644628924237)
(0.807356908815 -0.00638575779319 0.000640499231237)
(0.804115361405 -0.00587060144063 0.000502660530293)
(0.802298551385 -0.00486296588259 0.000356178643255)
(0.801528578843 -0.00394597430066 0.000188916715733)
(0.800999867076 -0.00287274433819 -7.85640772313e-05)
(0.801840192054 -0.00229776505525 -0.000330438353229)
(0.800085644277 -0.0046004277102 -0.0004509140306)
(0.802233651147 -0.00326399924999 3.73322525853e-05)
(0.801639623427 -0.00254846819919 -0.000181626798593)
(0.802231207932 -0.00219906518009 -0.000376020253567)
(0.800654068534 -0.00459901752046 -0.000476010862585)
(0.67905940567 0.0324362254317 0.0292042714123)
(0.736136092142 0.00549554245183 0.0260204633211)
(0.781010202271 -0.00696979266966 0.00730708903655)
(0.789871800795 -0.00373281324173 0.0039207702568)
(0.795114145507 -0.00177617072939 0.00208701045554)
(0.796771661825 -0.000959027455397 0.00086298128026)
(0.80002120498 -0.000613005015344 -0.000772410279431)
(0.79768743634 -0.00103098157887 -0.00104579463856)
(0.795044427251 -0.0182735849302 0.0190282082557)
(0.793969934519 -0.0255523856171 0.0151244617194)
(0.795525698865 -0.0135020797279 0.00377950989862)
(0.796554235087 -0.00793689978961 0.00257816847548)
(0.798023696189 -0.00457198744259 0.00161293781702)
(0.798194362142 -0.00267716735987 0.000543521656866)
(0.800449410253 -0.00170084908102 -0.000879301799721)
(0.798202128305 -0.00287483027534 -0.00113754590268)
(0.815480491454 -0.0118401489664 0.00164825677307)
(0.807812685564 -0.0126667616201 0.00171961434531)
(0.803398141438 -0.00914109275549 0.00156242796626)
(0.800994095365 -0.00593914588326 0.00141905304435)
(0.800167547358 -0.00405509621246 0.000999952608016)
(0.799601662954 -0.00273109908198 0.000120492358027)
(0.800923962788 -0.00207356744714 -0.000906205579555)
(0.798812951813 -0.00392648471009 -0.00128447879308)
(0.812078117745 -0.00364307504605 0.000576091436431)
(0.807395414743 -0.00523998753458 0.000783744849882)
(0.803984964471 -0.0053049110153 0.000898102272186)
(0.80199277982 -0.00478064847142 0.00101664513174)
(0.801177441602 -0.00401041016278 0.000759655838119)
(0.800467290574 -0.00297019156969 -1.68004969409e-05)
(0.801484329814 -0.00234120057381 -0.000988181450027)
(0.799544915316 -0.00467610057147 -0.0013857402041)
(0.802117945548 -0.00341389050481 0.000463316064462)
(0.80120234314 -0.00266311300984 -0.000324673046195)
(0.801938466223 -0.00224710391267 -0.00112288541904)
(0.800179193843 -0.00469570531295 -0.00142667114158)
(0.667317866158 -0.0219561936241 0.0194007846806)
(0.722945718065 -0.014655346184 0.00564014726893)
(0.778430779226 -0.00937200011462 -0.000416615207089)
(0.789008200068 -0.00421693730212 0.0010995977569)
(0.793645126133 -0.00187789872541 0.00141903915107)
(0.795247647722 -0.000965696316745 0.000464704530861)
(0.798674905643 -0.000662010789752 -0.00206144697857)
(0.795881314598 -0.00109072200222 -0.00231277254585)
(0.768929342701 -0.0294378494071 0.0146496714694)
(0.783069704697 -0.0334318976327 0.00520735533648)
(0.795549739113 -0.0143348275443 -6.21012488171e-05)
(0.7962771355 -0.00862125409732 0.000815894196043)
(0.796717980143 -0.00518049077846 0.0012092135239)
(0.796616221777 -0.00289147672608 3.13931050444e-05)
(0.799167058613 -0.00191920498258 -0.00230026904037)
(0.796504893084 -0.00323304424729 -0.00249556725561)
(0.817001290652 -0.0123513228714 -0.00138841603868)
(0.807720200598 -0.0128792152525 -0.000957528705756)
(0.802997030037 -0.00984782166488 0.000308968535857)
(0.800485835354 -0.00704218209873 0.00129123374151)
(0.799378116443 -0.00500112571524 0.00151451146797)
(0.798269325891 -0.00315230707539 0.000221095424064)
(0.799892425634 -0.00227560801362 -0.00203088500758)
(0.797214266454 -0.00423965381638 -0.00271969964078)
(0.814496963898 -0.00105054836827 -0.00115787074981)