/*--------------------------------*- C++ -*----------------------------------*\
| =========                 |                                                 |
| \\      /  F ield         | OpenFOAM: The Open Source CFD Toolbox           |
|  \\    /   O peration     | Version:  v1906                                 |
|   \\  /    A nd           | Web:      www.OpenFOAM.com                      |
|    \\/     M anipulation  |                                                 |
\*---------------------------------------------------------------------------*/
FoamFile
{
    version     2.0;
    format      ascii;
    class       surfaceScalarField;
    location    "3.15";
    object      phi;
}
// * * * * * * * * * * * * * * * * * * * * * * * * * * * * * * * * * * * * * //

dimensions      [0 3 -1 0 0 0 0];
oriented        oriented;


internalField   nonuniform List<scalar> 
92311
(
0.201062217116
-5.42727251184e-06
0.000769005759141
-0.201358721532
-0.00046707414063
-8.25608868137e-05
0.200761652216
0.00113279711825
-0.000749723731337
0.201006903012
-7.21521654405e-05
0.000816848924642
-0.201314289212
-0.000442769927443
-0.00022457876153
0.200679732459
0.0011849053163
-0.000715659006897
0.200815423372
-5.89192714603e-05
-7.0739061927e-05
0.000929535327824
-0.20117917063
-0.000480510481111
-1.46047717996e-05
-1.31847647088e-05
-0.000135991434447
-0.000135963829391
-5.13658926398e-05
0.200419335733
0.00127439929784
-0.000727487248436
-5.2037159769e-05
0.0502417906916
-4.37224068789e-06
-2.25370835737e-05
-1.54156117622e-05
-1.1271012949e-05
0.000173380040524
-0.0502882574798
-0.000132236660868
-0.0502165446979
0.0501503299526
-4.07900537694e-05
-3.78313025163e-05
-4.14614690662e-05
-3.72294959176e-05
0.000279901355079
-0.000192372434082
-1.36234227996e-05
0.0325422150434
-8.46607111415e-06
-2.83187717548e-06
1.53042008444e-05
-0.00861879937789
-0.0343012827046
0.00370993040782
0.00667759213202
0.0311493673019
0.0025297034512
0.00318241302366
-0.0301686804881
3.39577621996e-05
3.79312684641e-05
3.33754769495e-05
3.24698161183e-05
-0.00683068460617
-0.00172825424304
-0.00204885562742
-0.00346649254976
-0.00458987336783
0.00312314408883
0.00316538431533
0.0034990898614
-0.00299475517138
-3.01975137687e-05
-2.60702504754e-05
-3.22064919201e-05
-2.28462957405e-05
0.000239019274981
-0.000173158657419
-4.02032427195e-06
0.0124561300952
1.92987377036e-05
-1.67772412163e-05
-0.0124682880216
0.0124134454181
-1.59829058076e-05
2.95237613245e-05
-0.0124270487304
1.12954305346e-05
-1.12245338768e-05
-0.000206481142007
-4.49555358507e-05
0.0500961605933
-4.41768480468e-05
-4.58291208216e-05
-4.29184145101e-05
0.000302602701274
-2.14934318782e-05
0.0500838251112
-1.03622413516e-05
-2.14286321581e-05
-1.28700757938e-05
-0.0501441460848
-0.00013131705558
-2.26350519858e-05
3.63719422935e-05
0.0124022719288
6.68748546351e-06
-9.21698006179e-06
-5.27504922029e-05
0.0125164424132
6.38404567193e-05
-4.68967176204e-05
-0.0125255757518
0.0125136835422
-3.16325085462e-05
-3.39760119747e-05
-0.0125221511118
7.99150180069e-05
0.201812047266
0.000248829076373
-9.32207143408e-05
-0.202047570674
0.200613272176
-0.000179452097501
0.00113557002764
-0.000807452451844
-0.000269073254137
0.200583723721
0.00108434591442
-0.000785309448289
0.000225395585964
0.201700034272
0.000304174881588
-0.000109522554686
-0.202040253458
0.200514883197
-0.000420614905264
0.00118439152344
-0.000778118662192
-0.000616764836295
0.200517201013
0.00112809623496
-0.000782372770263
6.88748243552e-05
6.73667506525e-05
0.000159095094439
0.000332491424282
0.201628081881
-0.000154752374376
-0.202025820446
0.000150005108062
-0.0002142657359
-0.000235048330661
-0.000121984697806
-0.000155527330665
0.200232630975
0.00124289705445
-0.000750005438624
0.0505312638504
3.65700769297e-05
3.19937702304e-05
2.96065596705e-05
2.50231327534e-05
-7.15846444994e-05
-0.0505622391134
4.823886369e-05
0.0500160263779
-0.000215433468807
-5.56912756976e-05
-5.70776163463e-05
-5.79610519721e-05
-5.77864093727e-05
0.000309890532544
0.00188346478721
0.00292036956353
0.0317276189235
3.50852489893e-05
4.15083100587e-05
4.14390396364e-05
4.61848678713e-05
-0.00554543583684
0.00116405615007
0.00269756742536
0.00328596997129
0.0059574033417
-0.000187643006711
-0.0100179981923
-0.00668581696541
0.00194738130421
-0.000983322116498
-0.00187470816862
-0.00213725084931
-0.00248015234478
0.0109975206169
-0.000623687516417
0.00925124657234
-9.05112674718e-05
3.99959135872e-05
2.76511091002e-05
2.5038106017e-05
3.55721953266e-05
0.0504763777115
8.44663106187e-05
4.40783936594e-05
3.81136419871e-05
5.85059546844e-05
5.55968534544e-05
0.0503455319324
-9.11773898333e-05
-0.0503820817018
6.53969960068e-05
-4.92706860896e-05
0.0124789325747
-9.72157010148e-06
7.57257885615e-07
-0.0124861398288
4.50177433573e-05
-4.31123989261e-05
-0.0124704200706
-3.13311528619e-06
3.12224280426e-06
0.0124684941788
4.87494543562e-05
0.0125653234104
2.79654811243e-05
-2.4246279242e-05
-0.0125737114102
-0.000217983093356
-6.88800263768e-05
-7.1655988776e-05
-6.82497731515e-05
-7.31681480138e-05
0.0499747989954
0.000306131050461
0.0500115033244
-3.25577986425e-05
-3.08695337421e-05
-2.17808712226e-05
-3.61381154066e-05
-0.000143752690881
-4.22977986423e-05
-5.09241938707e-05
-5.03048717353e-05
-5.47770333131e-05
0.0499876974694
-0.000151360121311
-5.54130068523e-05
6.62235920981e-05
-5.21725115812e-05
0.0125022813299
-5.53455916195e-05
7.27206021296e-05
-0.0123821275383
-2.71008895777e-05
0.0123737175325
1.81478742135e-05
-3.35175208324e-05
-4.0482489434e-05
0.0124997272654
-0.0124917679728
-5.19757247084e-05
0.012486919518
3.73112193371e-05
-2.27830330564e-05
0.0305741678045
6.69338214276e-06
2.62351100337e-05
2.24611228372e-05
-0.00866015185899
0.00572412444395
0.00483259647396
0.00161756047382
2.84850710506e-05
1.26557056053e-05
1.34815321376e-05
2.38878373235e-05
0.0311816684931
-0.000196016705762
-0.0301510237939
-0.00229854094717
0.00679404432468
-0.00639658422609
0.00146263614294
-0.00592775599752
0.00439786051294
-0.0010386036697
0.00415106978171
2.76732034332e-05
2.9561062614e-05
3.24535850075e-05
-0.00782846381357
0.00397230436889
-5.52046228098e-05
-0.00759601166182
0.00129547983444
-4.57979983541e-05
0.0125476236642
4.39279116078e-05
-0.0125541626036
-0.0125403625458
-2.91482537289e-05
5.26757221141e-05
0.0125414392894
-4.71403079703e-05
1.56451283329e-05
5.67794862359e-06
0.0124422955752
-1.59994719783e-05
1.282841564e-05
0.0124516809967
-0.0124647504422
1.66664659108e-05
-0.012544973611
-4.3631462231e-05
0.012439649473
1.38063204509e-05
0.0125449334398
4.99246579888e-05
0.012543174542
-3.86420080126e-05
5.69478667368e-05
-5.01552968399e-05
-5.86361830671e-05
-0.0125451980751
0.0125463571966
6.09726769062e-05
1.38770847801e-05
2.23512214044e-05
-1.41796528249e-05
4.20051862984e-05
-0.0124254925425
0.0124129624991
8.12409423561e-06
0.0125454505646
-5.08386667206e-05
1.20982352784e-05
5.63558897949e-05
-0.0125410601329
-4.33597897282e-05
5.99196593225e-05
0.012535387712
-5.16666064114e-05
-5.90660238614e-05
0.0125407859972
6.32391977088e-05
3.10428804657e-06
3.70110078373e-05
0.0123957505831
-5.87506202542e-06
4.49302188098e-05
0.0124018751082
2.55153713855e-06
-5.10522378086e-05
0.012396507553
-2.32060562283e-06
0.0125346823562
6.5950702572e-05
-4.32719401862e-05
-0.0125254236861
0.0125168482631
7.16851859292e-05
-8.2899958279e-06
-0.0123930469237
0.0123922948048
-1.44688060035e-07
-0.0123912628003
-1.54565487519e-05
0.012389661959
-4.58255169356e-05
6.16150903339e-05
-5.15299407007e-05
-1.63431959514e-06
4.09247773988e-05
-3.02373322116e-06
-9.61522990784e-06
6.90408053757e-05
-1.2795019186e-05
-0.0125218759057
0.0125114592965
-1.8817985997e-05
-1.77560620971e-05
-0.0123816645564
0.0123784764833
-0.0123801305084
0.012377639114
-1.54811398368e-05
-3.10946981069e-05
-3.17470268637e-05
-0.0125322185244
1.61362218111e-05
1.31417028872e-05
-0.0123830778874
-1.29269091408e-05
-0.0125332551625
-1.66967949364e-05
-0.0123860731223
-0.0022993128154
-0.00587264906628
-3.11998461762e-05
-2.01190082053e-05
-6.45688439402e-05
-7.32861804089e-05
0.0345203322949
-0.0334411771133
0.00728200346262
-0.00198581932885
0.0115727637545
0.00194958575456
-0.0126689760565
0.0307698520309
-0.00326571048677
-6.44063811983e-05
-3.87443365865e-05
-6.82937682995e-05
-0.00119572870629
0.00261118428269
-0.0286829261026
-0.00459067132825
-3.99851388118e-05
-7.44550059962e-05
-8.61506706727e-05
0.0333117249406
-0.00357778952118
0.00724226408463
-0.00383341816127
-0.00808803996593
0.00411044802923
-0.00134260151443
0.00530658626141
0.00205852612951
0.030677249956
4.0404906323e-05
2.55633759432e-05
4.79313231212e-05
4.89366175268e-05
0.000166592802311
-0.00396870119032
0.00876067679087
0.00307936629028
0.00358095653581
-0.0021027983572
0.00244876969257
-0.00126161034671
6.79488498996e-05
7.48915852664e-05
6.84088731313e-05
6.36746979737e-05
0.028764492341
0.000451310627878
-0.00388541733088
0.0107775103024
0.00218084019387
0.00371194726218
5.03702735721e-05
6.8225800856e-05
5.71714874119e-05
0.0306273553189
-0.00410350004546
0.0032462998618
-0.00231710598122
-1.0806745935e-05
-0.0126217729824
5.9537111278e-05
0.0126117455987
-2.13760557963e-06
0.0126379201372
2.68305261821e-05
-3.77694075571e-05
-0.0126442803496
-4.88844111645e-05
-7.7426966034e-06
0.0124701804675
9.61752736057e-07
-4.12302547394e-05
0.0124819684222
-0.0124792873477
-9.9217518774e-06
0.012627856024
-2.02057046607e-05
-0.0126265837963
1.5234153609e-05
0.0124758388787
-1.03366747173e-05
4.26883912635e-06
0.012598410399
7.20383289048e-05
-2.31124396157e-05
-0.0126187284462
-2.2559965155e-05
1.73342864495e-05
0.0126084972883
-4.05262766565e-05
-2.95725192232e-06
3.30409714378e-06
-6.34210737495e-05
-0.0124686482713
-8.66284725032e-06
0.0124632171216
-2.23656821231e-06
-3.86079872763e-05
0.0125864599885
-9.83942120992e-06
0.0124726942614
-1.18346573161e-06
1.88549720112e-05
-0.0124727706772
-3.38975781237e-05
-1.81752150433e-06
0.0124703914769
1.79270538606e-05
4.30303158113e-05
0.0125613034948
-3.47567132891e-05
0.0125825372834
7.65615446438e-05
-0.012595787942
-7.07100914007e-05
-0.0124719418182
0.0124676804552
0.0125717633549
-0.0124796441475
-4.99786562199e-05
0.0125033276992
7.28166668982e-05
-1.53824329285e-05
0.0123891829494
3.71189452542e-06
0.0123881703676
-2.44466455991e-05
6.6446078224e-05
-5.84007276607e-05
0.0124930745829
-5.67240361519e-05
5.48592337071e-05
-1.94949029244e-05
0.0123871719482
8.14056659333e-06
0.0124928148985
7.41530048392e-05
0.0123863334582
-2.97531534456e-05
6.72743842993e-05
0.0124834806368
-7.0393729871e-05
-5.60879309702e-05
-0.0124807664155
-6.57699202883e-05
0.0124735544345
7.40981051598e-05
6.40818129029e-05
-2.35751494364e-05
1.49720154873e-05
7.9330054001e-05
-0.0123821302129
-3.29345060659e-05
0.0123768969483
7.52679172146e-05
-5.30904587603e-05
0.0124770662493
-3.25406485444e-05
-0.0124973669414
-4.01062641838e-05
3.61615325664e-05
-2.1274135528e-05
-2.13140337781e-05
-1.98846602536e-05
-2.38098463385e-05
0.0123777384108
0.0123768428368
-1.882842058e-05
2.82381888824e-05
0.0123754120354
-1.89870108848e-05
-4.90166164792e-05
0.0124922066914
0.0123761725739
0.0123806856891
3.04355544087e-05
-1.97187113743e-05
6.17677353306e-05
3.20451156609e-05
0.0123807351745
-1.88362781983e-05
3.46323908938e-05
0.0124844593036
-2.11865665717e-05
0.0124851028758
-6.18899487867e-05
6.96352103045e-05
-0.0123759135081
0.0123738707955
0.0124815653496
-0.000320208448018
-0.000246628514365
-0.0003182066788
0.00116982765352
0.200486120438
-0.000395131345123
-0.00075995255374
-0.000215063089212
-9.98858310668e-05
-8.88742646828e-05
-9.79007812145e-05
-9.02775204335e-05
0.000300362476672
0.0499462527909
6.8136899895e-05
0.000959576534333
0.00522954759479
8.35653118364e-05
7.32131544288e-05
9.28678003405e-05
-0.00301773585092
0.0271380962496
-0.00205728392677
-0.000947729498387
-0.00212061628321
0.000411371331336
0.0416220976222
-0.00341169369861
0.00741006249292
2.73123851164e-05
2.85991580878e-05
3.43222925848e-05
2.4428074599e-05
-9.18653890964e-05
0.00021319215136
0.0502829431139
2.77682145661e-05
-2.72423434739e-05
-5.62694705943e-06
0.0124587268912
0.0499687498366
-7.58268711136e-05
-6.6869981612e-05
-6.98333518479e-05
-7.31441204389e-05
-0.000157104320976
0.0500141286805
-9.65353725048e-05
-0.000105418808116
-0.000113173353467
-9.33621877073e-05
0.000200898204337
-0.000155960055618
8.87212626431e-05
0.0123583066352
-2.66781858261e-05
2.15631413216e-05
-7.59964509431e-05
7.24587800831e-05
2.72423649871e-05
0.0123707540172
-1.38269617632e-05
0.0123063705045
-9.03448972762e-05
0.000116668365982
6.51623663566e-06
-0.0123360047017
-4.17566704172e-06
0.0501659825508
-0.000147405716235
-0.000119861245985
-0.000122305717728
-0.000139119003224
0.000338050217037
0.000196577677071
-0.000157886129309
-0.00014066448095
-0.000156362083017
-0.000152298156658
-0.000136036293877
0.000410784234454
0.000183715486816
0.0503218825641
-0.000165105495011
-0.000111786391246
0.000134595825117
3.05691890295e-06
0.0122869691002
-6.86598781241e-06
-0.000217763112696
0.0002074365408
9.98481779922e-06
-0.0122696637327
0.0122772681726
-6.73301271478e-06
-4.23897905993e-05
-1.81656372762e-05
-2.53599116496e-05
-0.00822821428921
0.0339813105118
0.000262318334725
0.0252142363777
0.00347183341987
7.23060247332e-05
7.32074348615e-05
7.93962120924e-05
0.000737419313068
0.00495251743743
0.0196820214826
0.000111982248029
8.0341930462e-05
8.81864101265e-05
-0.00148099970667
0.00168950309305
-0.000293805132284
0.000310348886971
0.00640439597555
0.0128694665699
0.000131997369689
0.00264126520955
0.0132404914411
-0.000199658822842
0.0136326042853
0.000146480985403
0.000151668561194
0.000168524883954
-0.00273200783073
0.0052740925068
0.00292927014994
0.000187592784703
0.000202459844311
0.000182334608058
-0.00379050665939
0.00466353704844
0.00844499953512
0.00352469522024
-0.0125616471001
2.33692817975e-05
-6.0991095211e-05
6.80452110888e-05
0.0125585425523
5.25109814239e-05
0.0125540932021
-4.28213237686e-05
0.0124565556257
5.91623123414e-06
-5.72154115663e-06
-1.61832315188e-05
0.0124465067437
5.42973973528e-05
5.99949582352e-06
0.0124428776983
0.0125514097318
5.76859340235e-05
-0.012467764823
-0.000111793916488
-4.48609174705e-05
0.0124668481414
0.0124627577181
-6.16356583117e-05
7.23213218987e-05
0.000108686737219
-2.55652599894e-05
2.20479824105e-05
0.0123367343624
9.21045768276e-05
0.012362114584
-3.07411297756e-05
6.92521303398e-05
0.0124620277136
-5.04307706371e-05
-2.51589221379e-05
0.0123428303873
-0.0124742295272
-8.88753974202e-05
-2.82498241241e-05
0.0124707261973
3.40115376568e-05
0.0124769473522
-2.08479910215e-05
7.88874498184e-05
0.0123638887051
1.83098746661e-05
7.92165807758e-05
0.0123568592106
-1.01968509408e-05
0.012347657805
0.0124732298224
-1.82845942487e-05
0.0124654906316
-0.000105730032459
-2.62180181119e-05
4.06681667962e-05
2.78726303941e-05
-0.0124672977141
0.0124732893709
-2.27608343426e-05
0.000135150121039
-0.0123272666417
0.0122999147677
1.06311293515e-05
1.42013466506e-05
9.47128196868e-05
-7.548297703e-06
0.0124749058602
4.0397025268e-05
1.71524662784e-05
-1.89134619347e-05
-0.0124963059812
-0.000185591529454
-4.05109865098e-05
0.0125292431915
4.57572614624e-05
3.12820439312e-05
0.0124856642922
-2.88658264085e-05
0.000153284593365
0.0122879606815
8.37246948597e-06
3.84401535357e-07
0.000176901629408
0.0122637380186
-1.71790364565e-06
4.09566649098e-05
0.012270981496
5.16906397264e-07
0.0125189124093
-3.56901030753e-05
0.0125722564714
-0.000183589632961
-4.86925081493e-05
4.8621590272e-05
5.43566963626e-05
-0.0125714931228
0.0126147571101
-4.63278609897e-05
0.000186832161534
-0.0122723942207
6.58569023936e-06
0.0122766355362
1.08231181999e-05
0.000195242263507
-8.3850990427e-06
5.05453419099e-05
0.0126107357221
8.25116034107e-06
-4.17039232788e-05
-0.000558659622679
-0.0492774507657
0.0492064659278
0.000688141158754
-1.64076972767e-05
-1.28814580228e-06
-1.53932061363e-05
5.53977069831e-07
-2.63959143569e-05
-0.000702492377976
0.0497166752765
-6.25565674555e-06
9.38939811162e-06
-6.39661968321e-06
8.03473803979e-06
2.65093754419e-05
-0.0496698376754
0.000624335479879
-0.00102679053581
-0.049891988479
0.050189574411
0.000866637954287
-4.84683210443e-05
-4.21531790308e-05
-4.96356965696e-05
-3.71131773992e-05
3.99360557016e-05
-0.00069142893655
-3.6145497096e-05
-3.28285231165e-05
-3.74317100436e-05
-3.28886006278e-05
7.55509673392e-05
0.0502883264487
0.000572500422366
-0.0501056543251
-2.48801614577e-06
-0.000163229640781
-0.0480512952976
0.0435310348341
-0.00363674504502
0.00828274522744
1.82463896204e-05
-6.7709749908e-06
1.96194872996e-05
0.000148048426662
-0.0338165661036
0.0247107715827
-0.00385502280571
0.0115546720087
0.000133269276383
7.49147743857e-05
0.000103840147908
0.000944498041884
-2.83328025484e-05
0.00497937626111
0.0449749727664
0.00216468024602
-2.99203052223e-06
-2.99350941004e-05
-5.22533421576e-06
-0.0481239540346
-0.00392797306058
0.000115110534557
0.00570486181176
-0.0363080323023
0.0278892741446
-0.00634474144876
0.00882817021236
5.13355432853e-05
-2.88426903583e-06
6.69033227826e-05
9.77927481393e-05
0.00696470170099
3.80757072467e-05
-2.57897138028e-05
5.02243120668e-05
0.0291047328575
-0.00777139161454
0.00670150672488
-0.0351598723491
0.0196172357559
-0.00453141209482
-0.00573966848454
-0.0126235833969
-0.00769690980557
-0.0131580660111
0.0119699508957
0.00204885721229
0.0022150799732
-0.0178638373362
-0.0157707825024
-0.0174415817755
-0.0145489169853
0.0252864078494
0.00401650656892
0.0188974788165
0.00925709764502
-0.0049226905695
-0.00994213843851
-0.00242322175745
-0.00773257926928
0.00522787665266
0.0176922785025
-0.0135968982698
-0.0102795382787
-0.0114251650772
-0.00770208510954
0.0240706887637
0.0315640332301
0.00151717991413
-0.00492089100932
-0.00346942349969
-0.00026533620343
0.00591112960394
0.00289142846372
-0.0109404833145
-0.0081918760985
-0.00966755436442
-0.0080267360699
0.0296672403733
0.0165876399814
0.000185734770128
1.28162154042e-05
1.4913701824e-05
8.65879080903e-06
1.93222290153e-05
0.0489836732282
-6.63024290305e-06
3.1827587972e-05
-0.0492503592944
0.0490881552384
0.000382044970122
1.14661833057e-05
1.58019311817e-06
6.43248023356e-06
9.98781319273e-06
-2.2096193681e-06
-0.0493118807707
1.32610013863e-05
-1.3158793875e-05
-0.0123965496246
3.03781027273e-05
0.0123850233881
-1.81974916764e-05
0.0123964908687
4.95334699446e-05
-6.7362722711e-07
7.77424386731e-06
-4.15277169519e-05
-0.0124114044129
-3.78918179366e-06
8.31756016468e-06
1.36383528764e-05
-4.05627644393e-06
-0.000287305480304
0.0122487180757
0.0122385549306
0.0121628256061
0.0122261389332
-7.37034662063e-05
6.39737803794e-05
-4.9494943809e-06
1.43230910048e-05
-5.37239468761e-05
0.0123770762
0.000511630539459
1.27372513551e-05
3.60344888025e-06
1.14749802059e-05
7.06314344231e-06
-3.92272551766e-05
-0.0494027347835
0.0494828895539
1.87587462837e-05
1.49398472738e-05
1.36254013087e-05
2.0509574198e-05
-4.44594128931e-05
-0.0495409780053
0.000546201166461
0.0124091249956
4.89893901923e-06
4.21813050738e-06
-0.012420894631
5.21372981154e-05
0.0124426723374
1.79432163302e-05
-1.73045421592e-05
-5.00336371388e-05
-0.0124459960458
5.30440752052e-05
0.000970298238295
-1.67636384619e-05
-4.14515619093e-05
-1.52193815541e-05
-3.82693506455e-05
0.0492809014345
-0.000223295613879
-0.000193432522482
-0.000225134345698
-0.000189089333052
-3.07013743161e-05
-1.91496927124e-05
-2.68544068445e-05
-2.55238936562e-05
0.0494596770669
-1.15366067481e-05
9.36344936965e-06
8.74892106552e-06
-7.35307674436e-06
9.28229612641e-06
0.0496696825523
0.000874872346515
-1.78301206903e-05
-3.96702261073e-05
-4.06230537253e-05
-1.48226070066e-05
-1.78385321399e-06
8.85679084143e-06
0.0123951658696
6.66031071314e-05
0.0123698285345
-8.82416180663e-05
9.49111361411e-05
-0.0123790917717
0.000115276267054
-0.000112420100952
6.58331886842e-05
1.69079385752e-05
-9.52309930869e-06
-6.58437540524e-05
0.0124355452174
0.0124304453167
9.47037576123e-05
-5.90971647662e-05
7.12896953489e-05
-0.00010402516094
-0.0124329742835
0.0500136281894
-4.88501172166e-05
-3.28723162959e-05
-3.03859288895e-05
-4.0646321012e-05
-0.00116168538732
-5.66217889898e-05
0.00119261231074
-1.89971137784e-05
-1.73053275492e-05
-1.73735765333e-05
-1.10552064543e-05
0.0506122964767
-0.00022322023787
-0.00150353689867
0.000104938096094
0.0123988910816
0.000154603111719
-0.000140560490518
-0.000143029124178
8.52283254246e-05
-0.012464576746
0.000201089739049
0.0125202360118
-0.000198265030519
0.000112294577452
-0.000121850322584
8.24397908078e-05
-0.000108597349974
0.0124666402215
0.000128503796847
-6.33668116774e-05
4.73801823813e-05
-0.000144716238197
-0.0124785965658
0.0125114150415
0.000748777763667
-1.70749369314e-05
-4.31252441803e-05
-1.76348181427e-05
-3.99202005889e-05
6.83246057229e-05
0.0500232195204
-8.12500920315e-06
-3.01362975587e-05
-2.78594271043e-05
-1.13183045399e-05
5.55634101338e-05
-0.0498636362469
0.000611046088208
-1.7516583929e-05
0.0124482047172
6.30049915505e-05
-0.0124560730959
0.0124468043228
-6.15284295463e-05
6.39775721843e-05
-0.0124470360972
9.29247196383e-05
0.0124597427079
-4.24058795823e-05
4.52772084758e-05
-6.66162550692e-05
-0.0124592375224
6.35820840897e-05
0.00095285617059
-3.57818003136e-05
-3.65888910469e-05
-3.25509761067e-05
-2.72394115973e-05
0.050540801416
2.04395303664e-05
0.0502441625239
-3.76159283596e-05
-3.1156908183e-05
-2.58975525586e-05
-3.67237036749e-05
8.53755319994e-05
-2.9467859347e-05
-1.98225898198e-05
-2.24234731455e-05
-2.19244737165e-05
0.0504828391412
0.000740648957919
6.69882168587e-05
7.68682037039e-05
0.01247770967
0.000119159503413
-5.61214103945e-05
4.18521049631e-05
-0.0124853674165
0.00011318524081
0.0125150805432
6.96399083915e-05
-0.000104410397095
5.88213492151e-05
-5.48995753294e-05
0.0124910157318
6.46220152389e-05
-3.4504932291e-05
2.20975322384e-05
-6.97547624686e-05
-0.0124781952173
0.0124962682369
5.84334595562e-05
0.0124944722542
8.16073077297e-05
-0.0124673223592
2.11502747284e-05
-0.0124805983531
0.0124963406678
-3.13007105472e-05
5.93035105178e-05
0.00534917242778
-4.33441872103e-05
-2.13157912287e-05
-4.88318350889e-06
0.0498700453946
-0.00792568111578
-0.0497459721144
0.00253604136
0.0487246098645
0.000274298632183
-1.01678555688e-05
-2.13166926977e-05
-4.43508110193e-06
-0.0493069360004
0.00569041707401
0.00932289663444
-5.27452051302e-06
3.09220736517e-05
3.57587432624e-05
-0.00487526692598
0.044043426913
0.0152116176098
0.000238084209114
-0.00660726761201
0.000382003211917
-0.014981740701
-0.000574670835355
0.0162496230469
-0.0130803037247
-1.66966972321e-06
0.0141538814055
0.000599121405739
-0.0129431997511
0.0152238245135
-0.000629468968349
-0.014171060665
0.0116520871582
-0.000841001930026
-0.0120277645634
-0.00040675951326
-0.000550590426351
0.0058247014837
-0.00911752726786
-0.000272244173802
0.0105197001369
-0.00124270681177
-0.0123355151135
-0.000248269459507
0.00477639403691
-0.00911414561783
-0.00378609115686
-1.94603040803e-05
-1.41219811648e-05
-1.24550503957e-05
0.00463867154623
-0.0485822029104
0.0483072396358
-2.51738626035e-05
-3.16630047572e-05
-2.38056298663e-05
-0.0480095832154
0.000780914694353
-0.00476649940777
-0.0034503934403
0.0128204421859
4.65062307505e-05
8.48438880994e-05
5.9410836634e-05
6.5987288877e-05
0.0442785896676
0.00538086620272
-1.29128670381e-05
3.03434145998e-06
1.64355088745e-05
0.0106096589079
0.0352572810583
-0.00524019174915
6.80505809886e-05
1.56570819193e-05
5.87999484067e-05
0.0127094870519
0.00181354828568
-0.0105721971672
0.00108386823282
0.01382188718
0.0126382700987
0.0017970758825
-0.00965649318224
0.0140212012025
0.00255178101664
-0.00363906448019
0.00789437354381
6.47033971337e-05
4.84086973688e-05
0.000124594126103
0.0188924870299
0.00117968197318
0.0266010319799
0.0101780092786
3.71664788322e-05
6.75294438336e-05
9.51588864646e-05
0.00625083330909
-0.00457736191265
2.06106308319e-05
-2.57334367311e-05
0.00010702559341
0.0211183532005
0.00950442674857
0.00101992515796
0.00207134937503
0.00480168713684
0.0102613992698
0.00350960779825
0.00423954390661
0.006567715774
-0.00503760976123
0.00831100541713
1.30647316366e-05
3.9168973501e-05
3.89329928016e-05
0.00712224994239
0.0360624643326
2.50868961834e-05
-1.30365126658e-05
2.56042163449e-05
-0.044690891144
-0.00361229023048
0.0139490468308
-0.011103763309
0.00264649022204
0.00343922097523
0.0164471452857
0.0216238597249
-0.0179838388334
0.00341857758764
-0.00504768484518
0.00540356133372
-2.72262895058e-05
4.68193568559e-06
9.54390402593e-05
0.0228187296293
0.0288403692735
0.00762814705985
-3.8151749131e-06
3.97553783303e-05
6.94483407304e-05
0.00544873588981
6.794072961e-06
-4.05275804581e-05
9.28729221721e-05
0.024754342946
-0.00651053514493
0.0132665491781
0.00460650969208
0.00514925232325
0.00954017500022
0.0198473060962
0.0043335858028
0.0175260255515
0.00486068375629
0.0122844423263
9.81207955719e-06
-7.87612473041e-07
3.08426390841e-05
-0.0123115122554
1.19018620783e-05
-0.0122770782343
0.0122466470694
2.02986046199e-05
2.12432007566e-05
-2.95911541406e-05
-1.87266760943e-05
-0.0124130093566
-5.75025139377e-06
-0.0124053810045
3.40985685554e-05
0.0123852002127
4.2737308615e-05
0.0122565166541
3.2377556549e-05
-0.0124118756438
2.00727729694e-05
-0.0123080338688
0.0122954434933
6.00526406889e-05
7.41447308321e-06
-0.0123204907226
-7.43781852392e-05
-0.0123080894057
0.0122881711176
0.000103472799417
-9.49713164989e-07
-0.0124074529459
0.0123900818316
-8.76921045397e-06
-4.21980159499e-05
4.22159281084e-05
-0.0124242561615
0.0122693308726
8.63909296393e-05
-0.0123330709056
-0.0124146174673
-0.0122496500408
0.000118948877733
-3.84793324273e-05
-7.48762175084e-05
0.0122402368152
-9.13626290099e-05
0.0122734750682
0.000128574494431
4.19089885122e-06
0.0123675296587
-4.1274365885e-05
3.68735194064e-05
-6.17315914815e-05
7.50961014101e-05
0.0123572951279
-5.39445107905e-05
0.000155317881123
0.0122699645555
-4.50436981876e-05
0.012348052949
-0.000106819786817
0.0123488099297
1.00075144395e-05
0.000122891005954
-0.0123621682399
-0.0123282887125
0.000124601370515
0.012314845877
-9.83627925786e-06
4.2029437978e-05
-0.0124304752711
-3.24959953512e-06
-0.0124299285918
5.25250678946e-05
0.0124185101216
-0.0123470599592
0.000139752073464
0.0123375093078
4.47233468459e-05
-0.0124353246073
0.0123698290759
0.000132132068519
2.14193739333e-05
-0.0123816760449
-0.000147141537154
-0.0123869364101
0.0123807906745
0.000150827758239
-1.54146773735e-05
-0.0124386257576
0.0124310766385
-2.73609626466e-05
-4.63954515112e-05
-0.0124488751972
4.49532943678e-05
0.0123606309332
-0.0123977564051
0.000136096846585
-0.0124427533528
-0.000173145216768
-0.0123255456828
-3.7825574388e-05
0.0123318969296
0.000188463679148
0.0123010396533
0.000149760337084
3.37173356729e-05
7.51249314518e-05
0.012378008912
2.44255622369e-06
0.0124106931639
6.48228393033e-05
0.0123012371832
0.00016469477112
0.0123944721819
7.52159746676e-05
-0.000198576525361
0.0123538900512
-5.58020600759e-05
0.000215666937113
-0.0123146438957
0.000243708032688
0.012349056146
-0.000224699675431
4.62194319604e-05
9.60985724678e-05
-9.75836505251e-05
8.25854938413e-05
-0.0123988736463
0.000113832748151
0.0123994605991
-0.000180784463446
0.000250332686901
0.0123911984284
9.5869280339e-05
-0.0123534005661
0.000195621407528
-2.71379766316e-05
0.0123618606219
-0.000172643650755
0.0123792086124
0.000173981931283
-7.93338386396e-06
0.0124244878707
1.40172157407e-05
-7.65259095971e-05
0.0124299518709
7.12941319778e-05
0.0123884738501
0.000193073231574
0.0124126568681
0.0123860448353
0.000220517170137
-4.66625206831e-05
-0.00024381399985
-0.0124079669046
0.0124449075193
0.000238631602077
7.19096039682e-05
-0.0124226158126
0.012425888768
2.62075514772e-05
-9.86549434031e-05
8.51024216997e-05
0.0124234744023
0.000212558725851
-0.000304884690475
-0.0124320818179
-0.00010152723589
0.0124864367295
0.000311016127484
4.19448645262e-05
0.0124009766878
0.000273589268024
2.84771380173e-05
-0.000249317755588
9.70395678359e-05
0.00016854692369
0.0124341827952
-0.000167566714311
6.37627539984e-05
0.0124214303269
0.000140337025115
0.0124577681082
3.75339847837e-05
-0.000301500725836
0.000271403480693
2.54141916403e-05
0.0124424873021
0.000154660292001
-0.000317455493269
-7.9710123499e-05
0.0125728851717
0.00032848651339
-1.6667497684e-05
-0.012536964087
0.000361007412015
0.0126326695851
-0.00036077935134
-1.0513302326e-05
5.49536570928e-05
0.000170824849424
-0.000191284115329
-0.0124870454208
2.96884064277e-05
0.000181093915902
0.0125188643843
-0.000325884650092
-1.47181749359e-05
0.000174256047029
0.000355160449918
0.0126349386648
-2.68968459781e-05
-0.0124640934967
0.000296239308356
-8.88985749191e-05
0.0125197159913
-0.000256110048525
0.0124965735357
0.000253698804805
5.51891895507e-05
0.0124367753725
6.79692543369e-05
-0.000140947594828
0.0124847228251
0.000122358618904
0.0125442681863
0.000276499657414
0.0124599630314
0.000315934959916
-7.44905698804e-05
0.0125891867309
-0.0125841564374
-0.00031734491086
0.00029660310775
0.012634670039
-0.0124971039053
2.61683336868e-05
0.0125224097803
2.5893120816e-05
-0.000173331772855
0.000127249238462
0.00028483704828
0.0126415584813
-0.000180373404735
-0.0124217896409
-2.29842756574e-06
0.0124308688086
0.000167308154521
0.012404224173
0.000165277713882
-0.0124037880912
2.33531404113e-06
6.8637092978e-05
0.0124455589041
-1.96721662656e-05
0.0124551875511
-0.0124618867125
5.91485717952e-05
0.0124128639563
-0.0124207224894
0.000152525327337
0.0124489855109
6.72778218253e-05
-0.000197816172349
0.0124529940039
-2.35918998277e-05
0.000182255696271
-0.0124320204707
0.000223283016526
0.0124681275552
2.18584793143e-05
7.46548903268e-05
5.09899584673e-05
-0.0124638296125
7.8998102801e-05
0.0124658417114
0.000199318007559
0.012488016499
7.42041053978e-05
0.0124694151326
0.000165827068998
-1.01475037642e-05
-0.0124509223224
-0.000176650985407
-0.0124790521829
0.0125076133356
0.000163283132689
3.65160348349e-05
-0.0124706039547
0.0124714058182
9.40333254107e-06
-7.52108173665e-05
-0.0124666564195
6.00896998515e-05