/*--------------------------------*- C++ -*----------------------------------*\
| =========                 |                                                 |
| \\      /  F ield         | OpenFOAM: The Open Source CFD Toolbox           |
|  \\    /   O peration     | Version:  v1906                                 |
|   \\  /    A nd           | Web:      www.OpenFOAM.com                      |
|    \\/     M anipulation  |                                                 |
\*---------------------------------------------------------------------------*/
FoamFile
{
    version     2.0;
    format      ascii;
    class       surfaceScalarField;
    location    "12.85";
    object      alphaPhi0.water;
}
// * * * * * * * * * * * * * * * * * * * * * * * * * * * * * * * * * * * * * //

dimensions      [0 3 -1 0 0 0 0];
oriented        oriented;


internalField   nonuniform List<scalar> 
92311
(
0.20402084505
2.3682556984e-05
-0.00127953160793
-0.20379803349
0.00103518059788
-7.39471462989e-05
0.204184315952
-0.000951488486553
0.000863159403795
0.204052172806
0.000106227465824
-0.0013364630318
-0.203858291534
0.00106063819128
-4.35934437189e-05
0.204155023131
-0.000957059352183
0.00082452150248
0.203771090484
0.000157446567009
0.000124891930265
-0.00140996507932
-0.203869754048
0.00105507316271
0.000146120846082
0.000131524757633
-1.53953058636e-05
-9.19649705217e-05
-9.024547976e-05
0.204050226179
-0.000948080698446
0.000818437764695
4.64474486039e-06
0.0512142850577
5.8975113423e-05
5.65848864284e-05
5.47782733663e-05
6.28039779282e-05
-0.000386402429507
-0.0512041336122
0.000300584291999
-0.0512313540139
0.0512077917826
1.32104815414e-05
3.02119707117e-05
2.48022488965e-05
1.48281856301e-05
-0.000261649976849
0.000186770476154
-2.99103777693e-05
-0.000660513647407
-3.14969831016e-05
-2.97143837895e-05
-2.80441367542e-05
5.49238387936e-06
0.000519170466826
-1.23272552286e-06
0.0002374004672
-0.0012214457657
-2.53970419677e-06
-6.67482952209e-07
0.00108283498102
3.66134421263e-06
3.09295635666e-06
4.93509676704e-07
-2.12222533595e-06
0.000182714455821
-1.06279656625e-27
0
0
0
6.68462155787e-29
-4.63820251232e-29
0
0
4.66933319223e-05
4.93500650962e-05
4.41539209797e-05
5.40629546622e-05
-0.000326462567399
0.000240052466058
-7.16593487637e-05
0.0100562495272
8.9331333645e-05
-7.03732840632e-05
-0.0100432193973
0.010095559732
2.57262564333e-05
-6.33843480624e-05
-0.0100849616985
9.1397967805e-05
-7.03092930178e-05
0.000107331290549
-2.59158821858e-05
0.0512356515171
-2.25601683988e-05
-4.26292952889e-06
-5.18141155377e-07
-0.000173912767055
-3.97840405223e-05
0.0511727804317
-4.71830533099e-05
-1.08642082876e-05
-1.86864514675e-05
-0.0511397516565
0.000100733145923
6.56748410606e-06
-5.24548622803e-05
0.0101121422694
8.23950263443e-05
-5.53830339369e-05
2.05150423571e-05
0.0127407693711
-2.89675826207e-05
-2.28771785838e-05
-0.012735871071
0.0127317234212
2.08762989019e-05
-4.96843673269e-05
-0.0127221082244
-0.00011804108127
0.20423849986
-0.00210429582802
0.00178016736246
-0.203794914674
0.204276842842
-5.3603039955e-05
-0.000532909597007
0.000494298388474
-6.38655759481e-05
0.20437556266
-0.000374824424748
0.000340041939533
-8.1686021532e-05
0.204314326096
-0.00214494440918
0.0017921967343
-0.203997680555
0.204371130689
-0.00014921762145
-0.000649243913496
0.000529172956654
-0.000129274777085
0.204583493438
-0.000463602529251
0.000316671641772
1.6717567352e-05
0.000112066618779
0.000138844024924
-0.00229499119177
0.204333398607
0.00186995233949
-0.204285676969
2.81816425828e-05
-0.000150202122435
-0.000137491969542
-0.000180115862589
-0.000195334244101
0.204576674184
-0.000507360330877
0.000494838903532
0.0513296730188
1.67914368841e-05
-8.20351011241e-06
1.1155110854e-05
-7.917162107e-06
-0.000663531130659
-0.0512547471941
0.000593482596889
0.0513045752338
6.38741728348e-05
-3.90678327974e-05
-3.23729967217e-05
-5.09669016003e-05
-4.49314490342e-05
-0.000115693755828
-0.000235740662541
4.75921878347e-07
-0.00125802418615
3.85505098833e-06
5.91600141671e-06
4.10015150739e-06
6.76993282733e-06
0.000258686614165
0
0
0
1.27813780946e-32
-4.11652994682e-32
0
0
0
1.67806654398e-09
0
2.22128163057e-09
0
5.33723307014e-30
0
-3.89934817455e-09
0.000533904206838
3.33860232829e-05
4.01134360679e-05
2.71854905177e-05
4.81028856892e-05
0.051365877665
-0.000606950654148
5.25153679573e-05
6.55876583052e-05
4.9504001865e-05
6.00618676627e-05
0.0512873150208
0.000422120866094
-0.0512643664691
-3.56306136676e-06
1.5677723016e-05
0.0100754464136
-9.05521194317e-06
2.49256633406e-05
-0.0100993542323
1.60202551318e-05
-4.57211695745e-05
-0.0100486533108
5.93726441213e-07
1.57543509366e-05
0.0100486326328
7.94681263421e-05
0.0127844238755
-0.000129732795571
0.000100430058192
-0.0127824051574
4.81648136241e-05
-4.55411977722e-05
-4.68448640675e-05
-4.05775524861e-05
-5.05656235325e-05
0.051400974946
-9.84960331392e-05
0.0512698755942
-6.08925687625e-05
-8.71520315129e-05
-6.59162491777e-05
-8.2691562575e-05
8.34660019967e-05
-8.28655515256e-05
-9.15712012809e-05
-7.85306883824e-05
-8.18445873264e-05
0.0513890187422
6.858135358e-05
1.15092984012e-05
-1.80796527031e-05
-4.25949652472e-05
0.0127502892585
-4.18063662538e-06
4.15863888404e-05
-0.00995559930045
-7.97262681233e-05
0.00992113231802
8.80090598993e-05
1.39569750883e-05
-7.47385246617e-05
0.0127435386647
-0.0127591704553
-0.000113397846711
0.012784380237
-5.38858775015e-06
1.2703457119e-05
-0.000845073420026
-3.00213740998e-05
-2.53285637753e-05
-2.70926222277e-05
9.11934511086e-06
0.000292800592098
-1.0523737782e-06
-3.10938238733e-09
6.20599499408e-06
5.88305540638e-06
5.821495643e-07
-6.85930326849e-06
-0.000384184776255
0.000214924375505
0.000164425914886
-3.4477995449e-06
-5.45861308083e-07
9.52399634317e-07
1.61914672904e-06
1.9036316798e-06
-8.10677546852e-07
-4.13980601613e-06
-6.69293478518e-07
5.87226788931e-07
-9.59019943033e-06
-4.82178781735e-06
5.21398088454e-05
0.00025844594317
-1.77807262063e-06
1.96472052675e-06
2.16991927613e-06
7.68300679843e-05
0.012770297779
-8.87874431729e-05
-0.0127703150784
-0.0127605788805
6.57913322095e-05
-7.30303004245e-05
0.0127617789228
6.41071694626e-05
9.23192855038e-05
-7.60333074036e-05
0.0100703819614
-7.35826995021e-05
-6.55131276508e-05
0.0100669886988
-0.0100575590324
0.000105096240883
-0.0127598911665
6.60552189389e-05
0.0100766261863
0.00010975831338
0.0127710886497
-8.56547265106e-05
0.0127555692887
6.43949071327e-05
-7.17434799697e-05
6.212575658e-05
6.69161822006e-05
-0.0127648360714
0.0127639878165
-7.86788239973e-05
9.22524361771e-05
-7.44600174595e-05
-7.30314657951e-05
-5.7631207721e-05
-0.0100853357954
0.0100950559103
0.00011131326154
0.0127533273406
5.74398604533e-05
0.000113001796376
-8.40469943575e-05
-0.0127421281168
2.60309771842e-05
-5.16407349139e-05
0.0127416668872
3.91819215983e-05
6.04204846652e-05
0.0127534407233
-7.2069880432e-05
6.98585608629e-05
-2.73342797412e-05
0.0101091374292
-4.05413625387e-05
-4.76837932023e-05
0.0101133416675
0.000103496125081
4.93812005459e-05
0.0101138045231
9.25412884065e-05
0.012752309114
-6.32046668131e-05
-1.04802698852e-05
-0.0127474594011
0.0127471015842
-4.1836550268e-05
2.35013335825e-05
-0.0100958676999
0.0100658878726
2.08395183493e-06
-0.01010681986
3.91959429591e-05
0.0100832806842
1.2615372389e-05
-4.01351017213e-05
2.88263202386e-05
5.03605449347e-05
-1.52481426931e-05
-2.31425152252e-05
6.80583230876e-05
-5.16356325682e-05
-6.3873227509e-05
-0.0127159958152
0.0127274203694
2.64455997876e-05
4.95033961713e-05
-0.0101466520636
0.0101174110755
-0.0101492281541
0.0101156575938
5.1265953212e-05
2.38944699724e-05
5.01466419218e-06
-0.012732995837
1.02267160952e-05
-7.10200723964e-05
-0.0101541301656
7.72077056152e-05
-0.0127264352437
2.61781154373e-05
-0.0101491357383
-2.29926931693e-06
0.000222981100952
-4.10144187053e-05
-4.32925916546e-05
-2.88873212351e-05
-2.60645840525e-05
-0.00050322357932
0.000444051744741
-2.47899393898e-05
-1.87824277726e-06
-2.3992152943e-06
3.97795291462e-06
3.89818930671e-06
-0.000563227298968
-1.04455274764e-06
-2.69036960695e-07
2.05536315258e-06
-6.57177944694e-06
0.000137984841231
-8.18877764478e-05
0.000556027659603
-1.64418964251e-06
-6.89703453562e-06
-2.52264990521e-05
-1.41185351462e-05
-0.000660364678328
0.000409993869404
-3.67011739898e-06
4.18952601858e-07
4.61977315116e-06
1.84273128317e-06
5.5679358013e-07
-2.77063637562e-06
2.78145053612e-06
-0.000683531533693
1.0736516047e-05
1.05375840376e-05
1.25768897146e-05
1.26263802412e-05
-3.01436124516e-06
-5.18152505125e-07
-7.37744733398e-07
6.32952931311e-07
-6.92268246331e-07
-1.82548654232e-06
2.70349195479e-06
0.000383560374669
1.42808269731e-05
1.52194880762e-05
1.10930145802e-05
1.24424563353e-05
-0.000917559213974
-0.000222532776385
-3.50860217637e-07
-8.54154533049e-07
6.69714894719e-07
1.49004973617e-06
4.15226562816e-06
8.72434710748e-06
7.31237959449e-06
-0.00124244488622
0.000331779793452
-4.29016229379e-07
-3.82318478719e-07
-0.000164691369816
-0.0128001522108
2.59334382975e-05
0.0127995698547
0.000155986891783
0.0128045688869
0.000164868032981
-0.000169709432646
-0.0127926891647
-1.19212669882e-05
-3.43918659016e-06
0.0100609018998
1.95802378393e-05
9.56063051216e-06
0.0100461094621
-0.0100722320969
8.12005344768e-06
0.0128078553555
-0.000168910742082
-0.0127894670126
0.000155357777378
0.0100358644453
1.57797459553e-05
-0.00016077403048
0.0128046007393
3.82090839025e-05
0.000150923204495
-0.0128156395055
0.000153582232732
-0.000157551319462
0.0128140800979
-2.31389114172e-05
-2.69538290843e-06
1.8354219735e-05
-5.99528751853e-05
-0.0100315591162
1.72942373292e-05
0.0100365585736
-0.000164608328378
0.000142747012205
0.0128038627254
1.50834778185e-05
0.0100175994892
-4.32587080237e-05
6.5478284405e-05
-0.0100193568961
-9.42053658773e-05
-4.59840647781e-05
0.0100310846767
6.83222795838e-05
-0.000123145815537
0.0127840771811
9.50251960714e-05
0.0127953271711
6.78292308823e-05
-0.0127927249601
-8.05014039218e-05
-0.0100271416615
0.0100381031084
0.0127946670039
-0.0100272441005
-2.46082659689e-05
0.0127539052708
-3.42159743161e-05
-9.68882968412e-07
0.0100316081846
2.42152908074e-05
0.0100476903214
1.37393126512e-05
-1.3068909806e-05
-5.65507628381e-05
0.0127613341788
7.09712137518e-06
3.69594225517e-05
-2.8794742952e-05
0.00999026484445
5.1915517497e-05
0.0127632411064
-3.21021708453e-05
0.010004824293
-1.3847742394e-05
-1.44191312676e-05
0.0127791419702
-5.63872765315e-05
6.69227436383e-06
-0.0127796306321
1.70566463976e-05
0.0127935442255
-3.74445004517e-05
3.80135103222e-05
-5.46400257438e-05
6.96812339948e-05
5.89899274283e-05
-0.00996419289452
-6.53515439479e-05
0.00992159134221
-3.50793094939e-05
9.22892949738e-06
0.0127948834768
-3.99146771025e-05
-0.0127389639625
-0.000113321376564
-9.02876683039e-06
1.65640337361e-05
-8.48334227503e-05
2.20771726704e-05
2.35067412253e-05
0.0100732999714
0.0100767501863
2.09334402913e-05
8.07520007756e-06
0.0100214160602
-1.25141145895e-05
-0.000101897595073
0.0127618784174
0.01001423818
0.00997141369666
3.94740920366e-05
-4.91228762814e-05
0.000116213587415
7.05569750274e-05
0.00991137686219
-7.65877548798e-05
-3.17018211739e-06
0.0128062496052
7.71277474558e-06
0.0127838300936
-9.79458565563e-05
9.29050809842e-05
-0.00996139242855
0.0099130787263
0.0128018343424
-0.00015273831096
-0.000192403082792
-0.000165659929506
-0.000260191637798
0.205158703221
-0.00014518172899
0.000204796560041
6.03832035898e-05
-4.46313070776e-05
-4.02196232036e-05
-4.00834517627e-05
-4.38953547657e-05
-0.000102842232198
0.0514595401277
5.36005664677e-06
-0.000435491623496
9.43636049439e-07
4.48779581499e-06
9.67029779992e-06
9.0216241737e-06
0.000304074240438
-0.00115101191019
0
0
0
-1.11192933368e-29
-3.50635766927e-29
0
-9.15087991508e-30
6.2148139245e-05
6.32694264155e-05
5.92211276421e-05
6.51862271575e-05
-0.000138827851967
-0.00049507198767
0.0512849514116
3.55572975603e-05
-9.16713831146e-05
-4.57885806824e-05
0.0100504667578
0.0514744783156
-6.28778756899e-05
-7.8828355669e-05
-6.78311714107e-05
-7.26493405885e-05
6.47043529925e-05
0.0514729912854
-4.47202295641e-05
-3.74286434529e-05
-3.30921881673e-05
-5.21990864071e-05
-5.91456490836e-05
6.21917577401e-05
3.71850008377e-05
0.00988809000841
-9.95659795544e-05
0.000108956216932
-1.645326895e-05
0.000104787725062
9.24945937875e-05
0.00985429885365
-9.3866227052e-05
0.00976373675135
-7.79438619026e-06
2.5686164114e-05
0.000138929119319
-0.00977520365782
-0.000130379143235
0.0514392796949
-9.60915690032e-06
-2.18927125934e-05
-2.19329124907e-05
-8.12211136746e-06
9.42603206147e-05
-7.85350647124e-05
7.92434346093e-05
-1.45006111757e-06
5.61774832429e-06
-1.82837856549e-06
4.3113931029e-06
4.72939102948e-05
-5.26441145664e-05
0.0513801360489
5.7747131997e-05
-3.31633906185e-06
9.7256551581e-06
0.000146035530036
0.00975481996084
-0.000137051497082
7.96180547761e-06
-1.6918491142e-05
0.000163892971253
-0.00975844026914
0.00976702848746
-0.000161182650794
-2.77932949552e-05
-3.42878531891e-05
-2.7768052349e-05
0.000356812596052
-0.000723336681716
-1.70939275849e-06
-0.00101330833486
2.41653475001e-06
1.14440300051e-05
1.50680608839e-05
9.91574842137e-06
-0.000420339565437
1.54450706965e-06
-0.000978264042433
5.80029416549e-06
1.17205354914e-05
8.26202526791e-06
0.000408323421807
-0.00050442787238
4.43176803589e-07
-4.60560880915e-07
1.47597986319e-07
-1.66926825256e-07
3.34132584945e-07
-2.07652396635e-08
5.24694499544e-07
-1.46723557211e-07
-0.00080914307141
3.11643011377e-06
-1.64998983224e-06
-9.80674280665e-07
0.000148895665536
1.0957338736e-06
-0.000358392688717
-5.43100540498e-06
-8.65755319403e-06
-5.17844307262e-06
-0.000208907241865
4.43808209349e-07
-0.000557106163438
-5.27411446771e-05
-0.0127915191368
8.26823331425e-05
0.000109357584199
-0.000127232139117
0.0127900516556
-0.000114728322011
0.0127823839338
-8.19649656996e-05
0.0100512035125
-1.73108398356e-05
-4.32166863294e-05
-9.03414317129e-05
0.0100615421422
-0.000133613329586
-1.38802004653e-05
0.0100606117974
0.0127822430801
-2.24215028317e-05
-0.0128153297016
-4.84177048719e-05
1.40518185252e-05
0.0128286059313
0.0128097078656
2.29977201617e-05
-4.21549487369e-05
3.29322849895e-05
-0.000121454633491
0.000130053217383
0.00985590735474
5.44408610232e-05
0.00988405557255
-8.71614045186e-05
-4.02779074574e-05
0.0128213695652
1.35103583585e-05
-0.000108779022736
0.00984724343516
-0.0128250700752
-6.50791398773e-05
8.02094118496e-06
0.0128348261732
-3.88495694055e-06
0.0128292187712
8.24829395867e-06
8.06241341879e-05
0.00987327503743
0.00011018160304
8.29289627879e-05
0.00980837308021
-0.000106935358567
0.00983790625643
0.0128382884958
1.07311206346e-05
0.0128431006944
-4.66019119369e-05
1.73892619594e-05
-2.2137476226e-05
-1.80524007102e-05
-0.0128492776855
0.0128406242917
1.65144642126e-05
2.21683379514e-05
-0.0098095351809
0.00979648243715
0.000144695336382
0.000125722336584
5.94928918632e-05
-0.000117557422937
0.0128389828376
-2.32497299128e-05
0.000129894760569
1.54516672084e-05
-0.0128341752241
5.78416633381e-06
2.11096109914e-05
0.0128232198853
-2.44703549511e-05
-2.19853845359e-05
0.0128312246644
2.01080872701e-05
1.09824996607e-05
0.00978759610169
0.000153540170295
0.000152560266026
-9.46931634533e-06
0.0097525902379
-0.00014536887012
-2.67284235369e-05
0.00978336573675
0.000160066181214
0.0128155760116
1.93067621721e-05
0.0128136676206
9.49173873291e-06
2.06011012074e-05
-2.17808214007e-05
-1.25682553745e-05
-0.0128033575091
0.0127936751557
1.09213411098e-05
-5.9046489118e-06
-0.00978150149897
0.000164260280765
0.00978075710187
0.000159300412781
-1.97857681679e-05
-0.00015475659256
-1.3208205574e-05
0.0128065488526
0.000163643665235
1.73196180189e-05
-0.00044814481597
-0.0496549392429
0.0495161960151
0.00055170301051
2.70471663747e-05
3.21201005241e-05
4.07331435888e-05
2.33039691341e-05
-8.78567099563e-05
-0.000624345779365
0.0500895178565
-3.88120745037e-05
-3.19957545682e-05
-3.26639984138e-05
-3.83059694913e-05
0.000104241735522
-0.0500656791536
0.000638066272033
-0.0010714737521
-0.0501576219908
0.0502659861415
0.000958064441708
-6.36820879004e-05
-3.71733708643e-05
-5.56634484715e-05
-4.61750045604e-05
0.00020797751389
-0.000852447920806
-4.55902876099e-05
-3.61527499255e-05
-4.57103101574e-05
-3.66034465645e-05
0.000188959580419
0.0505013625694
0.00074734069793
-0.0504210679851
-4.3912235413e-05
-0.00035290739811
-0.000228126147813
0.000492560158789
0.000402926777679
-3.24271788079e-07
-4.64995620118e-05
-2.86422999608e-05
-2.81204622424e-05
-3.78808144611e-05
-0.00072140465679
0.000888738258128
0.000391099732187
-1.33615729903e-07
-3.30728245905e-05
-2.113085714e-05
-1.37964978101e-05
-0.000333234428825
3.58260142229e-06
-0.000329020161016
-0.000326148036106
-2.55828437491e-07
3.48615844343e-06
6.30629052842e-06
6.65499728906e-06
0.000564490244018
0.000156356517781
6.67374218146e-06
-0.000343151097541
0.000107633461508
6.22490056397e-05
0.000180257485689
-3.51745198529e-08
8.89942681797e-06
9.53627483764e-06
1.1414555132e-05
8.70322735467e-06
-1.05326427265e-05
9.24716968425e-06
7.67088054259e-06
8.22438943566e-06
-0.000507595198612
-9.6290187173e-05
-1.15488541435e-07
0.000618014702396
-3.96644749892e-09
-3.52967778614e-29
1.96406472374e-09
0
2.00238277518e-09
0
-4.48801084743e-29
-1.07818058487e-27
1.75047667834e-26
4.8599001154e-08
-3.5807482415e-08
1.0123975407e-08
1.84503297328e-10
-1.04123749985e-07
7.39888075658e-08
3.39998302662e-29
1.1653513756e-28
1.62111477317e-10
1.70494526973e-10
0
0
-3.3260600429e-10
1.06526273425e-28
0
0
0
0
0
-2.02092091736e-28
0
0
0
1.6462942847e-33
2.86252872831e-30
0
0
0
0
0
0
-1.31350557615e-33
9.07650531584e-05
5.58290044107e-05
7.75320216988e-05
6.58310469074e-05
6.84619632595e-05
0.0494223732591
-0.000128434900647
-3.20987245532e-07
-0.049651994603
0.0494391015188
0.000268814025992
4.05099058508e-05
3.93899527333e-05
4.78144919258e-05
3.07177844902e-05
-0.000103506628077
-0.0496719502186
6.81028279161e-05
-0.000106948078976
-0.0105322516102
9.41362579214e-05
0.0105371678472
-7.64514428425e-05
0.0106020705135
9.53981145293e-05
3.7957408615e-05
-3.47307508371e-05
-0.000101603472403
-0.0106044897822
8.99318937585e-05
5.99751741725e-05
7.66815852489e-05
7.88985882122e-05
-0.000225395608904
0.0123236349101
0.0122308484319
0.0122527891192
0.0123123609241
-0.000208717776097
0.000108338466175
4.46491393872e-05
-5.12412166146e-05
-0.000116939828946
0.0106127940555
0.000373219215774
7.34551951488e-06
2.07047295436e-05
1.27159396973e-05
8.92942062714e-06
-5.1470134392e-05
-0.0497574350325
0.0498737549109
-1.52754424613e-05
-2.24726608462e-05
-1.0591987264e-05
-2.28933967766e-05
-1.26879748485e-05
-0.0498818145639
0.000465385015023
0.0106207870611
3.89813557741e-05
-2.14712597286e-05
-0.0106240686009
7.51169137616e-05
0.0106464553531
-8.18781212013e-07
3.95059736992e-05
-3.62994957509e-05
-0.0106616081651
1.32331870687e-05
0.000799619330548
4.35515134699e-05
5.96732936949e-05
5.59009141046e-05
3.9770694545e-05
0.049365003387
-0.000190272884166
-0.000140267534228
-0.000190334973799
-0.000151601860571
-5.87537535456e-05
-3.86424652808e-05
-4.29663421083e-05
-3.42419250862e-05
0.0497925097997
-5.00246598796e-07
-1.51972725846e-05
-2.68468824407e-06
-1.42721776365e-05
4.14109281524e-05
0.0498347146581
0.000814505587979
1.39036425361e-05
-7.812314155e-06
6.31971030668e-06
7.01428172475e-07
-6.97909741596e-05
-3.39470681017e-05
0.0106255579644
8.81462557198e-05
0.0106766451797
5.18645899566e-05
-5.81675650854e-05
-0.0106563069994
0.00013228158526
-0.000156003907188
1.92042120702e-05
-1.7514925362e-07
2.63403427861e-05
-4.58482176344e-05
0.0106452344298
0.0106701326608
4.46222580205e-05
-8.2416434689e-07
2.10360450943e-05
-7.50617206301e-05
-0.0106613312614
0.0499194013647
-1.31117265229e-05
-1.29366231691e-05
3.12581535144e-06
-3.21540993797e-05
-0.00108884071664
-1.14921263692e-05
0.00132980225166
-2.0095000012e-05
-5.8143230071e-05
-3.61964216683e-05
-4.29373116462e-05
0.0504478808462
-9.72219668533e-05
-0.00160305725293
-5.70332772874e-05
0.0107084250894
0.000154318335435
-0.000174251178024
-2.48593865264e-06
1.16957649747e-05
-0.0107636751951
0.000215956753787
0.0107775361898
-0.000238337616408
5.68028457576e-05
-3.07550062039e-06
2.43538211847e-05
-9.12600601492e-05
0.0106893546063
0.000103795776515
-1.13662161073e-05
0.000101010448826
-0.000146450596
-0.0106932298952
0.010672588941
0.000789046967877
-3.12462365012e-05
-2.87496064403e-05
-2.31287502605e-05
-3.81168902611e-05
7.87917006054e-05
0.0503232233704
-3.08321753083e-05
-3.94809175728e-05
-3.62181946712e-05
-3.3634651884e-05
0.000108489637631
-0.050251335607
0.000749003263773
3.65934007461e-05
0.0106173330523
4.4349349486e-06
-0.0106217676579
0.0106332159922
-5.05632418392e-06
3.27617670601e-05
-0.0106268369631
2.9025626483e-05
0.0104914295993
-9.50207236242e-06
3.87016002628e-05
-1.09833380632e-05
-0.010484959759
8.4820223386e-06
0.0011466370582
-7.00030477437e-05
-8.44104205952e-05
-6.18255677613e-05
-8.95170311283e-05
0.0505240081037
0.000231137040747
0.0504233447688
-5.36164171424e-05
-4.32166883263e-05
-3.99277264352e-05
-5.51109168671e-05
0.000197570792829
-5.70450546506e-05
-7.28372882181e-05
-5.89321214979e-05
-7.46801766519e-05
0.0506078548513
0.000981100921503
0.000244758757865
3.36292446102e-05
0.0106460187708
3.92286897798e-05
-1.29415235852e-05
9.95148179572e-05
-0.0106420885697
7.38432379619e-05
0.0106189837406
1.41772577169e-05
-9.61217579351e-06
3.59578304615e-05
-1.92065871195e-05
0.0105025806692
1.83512236093e-05
-1.0757786294e-05
6.5504572782e-05
-3.19890021592e-05
-0.0105056830602
0.0104968178494
2.5515085635e-05
0.010480304166
1.38160534774e-05
-0.0104669395829
5.92690733434e-05
-0.010485680518
0.0104753561237
-9.83178130971e-06
8.46779220618e-06
0.000252210178956
-6.59699850741e-05
-5.77095684307e-05
-5.56685872079e-05
0.0005027795861
-8.29697870446e-05
-0.000186201475659
-1.34007536628e-06
0.000377963534984
0.000332045761091
-5.1603532442e-05
-3.93820382491e-05
-5.26878872457e-05
-7.88448670634e-05
-1.08860206619e-06
-2.89122495101e-07
-5.60875278367e-05
-4.97300471518e-05
-6.46892024232e-05
-0.00023939831715
0.000671020271336
-1.35879323152e-07
-1.99671871467e-08
3.62446482257e-07
-9.46233883146e-09
1.77606782369e-07
2.5691779648e-08
-7.37357969091e-08
3.39841816752e-07
-1.34191976975e-07
-8.51480368347e-08
-7.19352864331e-08
1.78296430922e-07
-2.07650080587e-08
-2.66703069122e-08
2.4943667046e-07
-8.42582301617e-08
-5.61004036974e-08
3.38880935428e-07
3.57821032336e-08
-1.26178193777e-07
-1.96335650118e-06
1.42994478274e-07
1.82475781956e-07
-3.72975623422e-08
-6.88101923054e-08
2.07055755235e-07
-5.52982760242e-08
-6.73737073827e-07
1.68074894036e-07
0.000354150048477
-3.73267462174e-05
-2.12101832356e-05
-2.2265804775e-05
-9.91889137959e-07
4.52616958676e-05
-0.00012212898189
-1.38222311476e-05
9.79687176719e-07
-8.24489807335e-06
0.000361373099506
-6.80752267218e-07
0.000283743467106
0.00042242454187
-2.38814853931e-07
-5.30634046143e-05
-2.50365721947e-05
-3.10937577816e-05
-0.000354313715486
0.000131931941205
-3.87563643091e-07
-1.82388082027e-05
-1.24825116791e-06
-2.47901600494e-05
-2.65088228493e-07
0.000355386638231
0.000354912844622
-2.01095509491e-05
-3.3425079026e-06
-2.41022352355e-05
-4.20517930979e-08
-1.70955363394e-07
1.12576974859e-07
-1.0801075504e-07
2.54772638059e-08
-2.39119079474e-08
-3.33802313552e-07
1.33163791763e-07
6.95482488847e-08
-2.58946119965e-07
0.000307140398564
-3.27712947732e-08
-1.51009646398e-05
5.22356079278e-06
6.90561801831e-07
0.000897222574387
-0.000259563272881
0.000485789184666
-1.2455625334e-07
-9.81403397007e-06
5.37898497869e-06
1.3461000937e-07
9.16671897162e-07
0.000277895886522
8.11413867111e-06
8.63855071195e-06
4.80643712998e-06
0.000499096845609
2.80643493953e-08
-1.20766704123e-07
-4.03926652782e-08
1.45206317423e-08
1.12257719952e-07
-3.11073681434e-07
-9.58053712184e-08
1.82030979093e-07
0.000177259031419
-1.40353492172e-07
4.70018940311e-06
8.53959134425e-06
7.68629456636e-06
-1.55997241847e-07
-0.000436688049129
9.33368803586e-06
9.37083979373e-06
8.37951334267e-06
0.000630093597152
3.17010296819e-06
2.23965696994e-07
-1.13833213401e-07
-3.60117037473e-07
-3.14718791817e-07
3.4163891927e-07
4.23376252551e-07
-2.59036505308e-07
-3.22929560139e-07
0.000166470876572
5.04180961977e-07
1.13788758596e-05
1.38994205912e-05
1.3051726797e-05
0.00015185012256
-0.000269704257696
-6.28446960551e-08
9.88419806031e-06
1.01976214158e-05
1.11094016192e-05
5.66877981202e-07
1.22091627826e-05
1.04897195186e-05
1.15881963271e-05
-0.000164174807462
3.10081925803e-05
4.08117201607e-07
-4.15988659777e-07
-2.78786842024e-07
5.45743657185e-07
5.83740844296e-07
-4.54674327903e-07
1.03212775976e-06
-4.6231324573e-07
0.0124261564286
7.05688828581e-05
6.54377510344e-06
2.70490693807e-06
-0.0124492390336
-1.39078476721e-06
-0.0124172423649
0.0123843151316
5.12828543713e-06
8.5064972391e-05
-9.28171286045e-05
-7.34607066869e-05
-0.0105318276164
-8.48363146322e-05
-0.0105489910317
0.000106118902621
0.0105515160241
9.36781140879e-06
0.0123965728781
9.34516917788e-05
-0.0105544023708
8.14936848678e-06
-0.0124423575438
0.0124367007964
1.66086315216e-05
4.45312730315e-05
-0.0124535876496
-2.98112266721e-05
-0.0124488134724
0.0124277534554
5.57046362669e-05
-5.5022083382e-05
-0.0105760011626
0.010574897118
-2.6075452569e-05
-8.51149340743e-05
7.68822079708e-05
-0.010615828788
0.0124093218508
3.58911149864e-05
-0.0124626437361
-0.0105842993729
-0.0123901733236
6.59690930753e-05
9.30190470125e-05
-4.15553661764e-05
0.0123625041318
-4.14492792046e-05
0.0124097998191
6.81382703272e-05
-7.78202654757e-05
0.0105920160001
-0.00011961175596
-6.86289716678e-05
-0.000127040804884
0.000122796622917
0.0106284209783
-2.35129837916e-05
9.72845844232e-05
0.0123886434817
-0.000127170660069
0.0106123754428
-4.55642247368e-05
0.0124837799618
8.32981710404e-07
5.81899853982e-05
-0.0124893512839
-0.0124664401956
6.72208113806e-05
0.012454262746
-1.24260117291e-05
5.97143095679e-05
-0.0106371846546
-3.46598709955e-06
-0.0106521427397
5.94258273366e-05
0.0106450779043
-0.0124753059261
8.11941973024e-05
0.0124753631306
4.87454179919e-05
-0.0106665582896
0.0125019954614
6.96364787041e-05
-2.60956673212e-05
-0.0125017772374
-9.0298912587e-05
-0.012516997799
0.012518526665
0.000106501974758
1.58780575499e-05
-0.0106554243219
0.0106448152204
4.34128507937e-05
-2.89904079293e-05
-0.0106819843196
9.83399659825e-06
0.012498595537
-0.0125148399551
8.90864180534e-05
-0.0106730390557
-0.000108302160334
-0.0124628684715
2.11072756814e-05
0.0124505432694
0.000126486193515
0.0124378491068
8.27993583845e-05
-4.34660893113e-05
0.000100268358636
0.010638038367
-1.7952607981e-05
0.0106455699606
7.15767055389e-05
0.012424026748
0.000100610825143
0.0106512944285
8.09776918833e-05
-0.000136915891946
0.0124414517876
3.26041511666e-05
0.00015680871315
-0.012405631764
0.000170457329462
0.0123933090325
-0.000156797206511
-5.76151286033e-05
0.0001164128968
-0.000139456721754
-2.50653557624e-05
-0.01066832448
0.000109975941576
0.0106849815285
-0.000120393749641
0.000190712974898
0.0124356804011
9.4892103153e-05
-0.0124895479056
0.000132274417763
2.77957060343e-06
0.0124804580734
-0.000109195562823
0.0125133006295
0.00012602419617
2.22416793663e-06
0.0106447949237
2.37102747071e-05
-5.01152806797e-05
0.0106451813123
2.23763864068e-05
0.0125087789571
0.00014656837857
0.0106474406087
0.0124754603079
0.000162409965949
1.32888222389e-05
-0.000190194770005
-0.0125059739809
0.0125085474053
0.000201020632413
-6.2211020266e-06
-0.0106637835745
0.0106790436771
8.20795267886e-06
-6.22701338698e-05
3.11890205858e-05
0.0124760600996
0.000174268502308
-0.000250245075962
-0.012430781107
1.1708647834e-05
0.0124373065556
0.000266109760025
-3.46173576587e-05
0.0123820937291
0.000208253184402
-6.11488733107e-05
-0.000193101219948
-3.98792402421e-05
0.000168808790186
0.0107345724305
-0.000191527074964
-2.57632891877e-05
0.0107115036864
0.000126456845016
0.01238742691
-5.51293333755e-05
-0.000240637318944
0.000229579218387
-4.24926405906e-05
0.0107301197716
0.000141222888638
-0.000294768287931
3.78220183858e-06
0.0124753809381
0.0003071398924
-5.50943324317e-05
-0.0124369635605
0.000327118251075
0.0125168082391
-0.000329885884382
-6.61088308101e-05
-2.35788954362e-05
0.000192626373567
-0.000220080382119
-0.0107542177683
3.8286958038e-05
0.000190828201149
0.0107503357679
-0.000284319833901
-8.40952388106e-05
0.000167192723068
0.000341305073104
0.0125409673439
-4.22849723028e-05
-0.0124756918116
0.000256863810981
-1.43164889709e-05
0.0124860171395
-0.000225877428709
0.012509605743
0.000236441536811
-7.090687834e-06
0.0107049212206
5.34725207597e-05
-0.000106584629819
0.0106920838392
6.96309283734e-05
0.012520116161
0.000267784733022
0.0107181008082
0.000293164343915
-3.52400849004e-05
0.0125147959259
-0.0125455682958
-0.000327146254386
0.000328490148496
0.0125869320065
-0.0107290923213
8.13807478914e-05
0.0107166046524
6.89572321721e-05
-0.000129096125347
8.78091942694e-05
0.000300444682484
0.0125668599169
-0.000151542751261
-0.0125524700503
-5.0432802621e-05
0.0125529694111
0.000163289334378
0.0125331550115
0.000133749930941
-0.0125356872104
3.60615761261e-05
7.23356265481e-06
0.0106151994662
5.09888931027e-05
0.0105850756709
-0.0105960439889
-4.70882346849e-06
0.0125321479693
-0.0125515105511
0.000146359777408
0.0105764241522
-3.00935888047e-06
-0.000177349623101
0.0125574367594
-4.44981110669e-05
0.000186697591738
-0.012532915241
0.000200084501901
0.0125383984901
2.64075162534e-05
1.63953936837e-05
5.00383377153e-05
-0.0105815434959
1.32132962573e-05
0.0105886223222
0.000206395481882
0.0125637551802
3.85362219781e-06
0.0125763919544
0.000187563666897
-3.63225619414e-05
-0.0125710540327
-0.000204266943602
-0.0125933815929
0.0125996244497
0.000198001599518
4.12245292411e-05
-0.0105287847213
0.0105331876586
3.71987675612e-05
-4.01386193346e-06
-0.0104820282326
6.52593164828e-06
0.0125842112286
-0.0125867034937
0.000185177402158
-0.010526035478
-0.00025976248497
-0.0125668999763
-7.28594192459e-05
0.012579110391
0.000257357830347
0.0125414080902
0.00023038428437