/*--------------------------------*- C++ -*----------------------------------*\
| =========                 |                                                 |
| \\      /  F ield         | OpenFOAM: The Open Source CFD Toolbox           |
|  \\    /   O peration     | Version:  v1906                                 |
|   \\  /    A nd           | Web:      www.OpenFOAM.com                      |
|    \\/     M anipulation  |                                                 |
\*---------------------------------------------------------------------------*/
FoamFile
{
    version     2.0;
    format      ascii;
    class       volScalarField;
    location    "14.25";
    object      p;
}
// * * * * * * * * * * * * * * * * * * * * * * * * * * * * * * * * * * * * * //

dimensions      [1 -1 -2 0 0 0 0];


internalField   nonuniform List<scalar> 
28582
(
17075.7607039
17076.0081008
12177.9616254
12178.0478827
7280.51083862
7279.83542054
3607.72437586
3606.36697212
49.1264149644
52.6736127374
-27.0721862568
3606.96531707
640.473528933
641.313772991
3605.93351639
3605.9088428
642.118876067
1770.01470981
1769.62351529
17074.8150771
17076.6674728
17078.1421119
12177.0001119
12178.7136652
12180.216386
7279.53863203
7279.25528269
3607.1982479
3605.8101533
54.1972798025
-27.0859541708
-27.0294275133
3606.6720818
3607.83777268
640.080678335
641.421485287
1774.14144177
3605.84340672
3605.57134894
3605.5751318
1769.40274018
645.047886085
1769.11099334
1769.31428652
50.2907107826
53.0154862047
-22.9804825584
-22.9726704045
51.2782148299
-22.9964760451
1772.35980329
1772.18679224
640.651619083
640.395617159
1772.80008968
640.809540481
1771.58010514
1771.73309979
1770.94159578
640.785341323
641.659929481
1771.47562457
641.135377692
1771.10255583
1771.07984091
1770.96819722
642.86425294
642.34314156
1771.31342951
642.989005011
1770.97457599
1770.45069412
643.665001718
643.637483141
1770.6610071
643.469321566
643.527157222
1770.81126332
1769.45639087
643.355307462
643.390281863
1770.40402107
643.236501456
1770.34589131
643.172696829
47.9899017235
-23.0159258962
46.896606659
48.4690573378
-23.0446542699
-23.0192149975
54.4836173665
-22.9659520837
-22.9543300222
55.8506253641
-22.984419468
55.613564679
-22.9683365214
1774.33517381
1773.58932701
640.998178755
639.980756964
1773.54750912
1774.36487563
640.969339396
1773.73403982
1771.97703326
641.495744182
641.446222589
1772.9764667
1772.65849375
641.512130593
640.919692344
640.831112624
1773.06002097
1774.04365799
641.169782426
1772.95033006
641.253700582
1770.02352068
643.736755685
643.647633663
1769.07263308
644.002654768
1769.59877483
643.845094766
1769.06076352
1769.41512688
644.402768635
644.979378389
1769.38017527
1769.36460577
644.253525558
1769.0057569
1769.03594725
643.533267975
643.486420393
643.865406683
1768.97763551
643.874012849
644.533098692
645.503897555
1769.80274595
1769.18487561
645.158437449
1769.65822063
644.416742687
7280.35197251
3606.27719065
56.9178037461
-27.0361541057
3606.92265315
640.547228996
3606.07177211
3607.18013299
645.805322561
646.665683975
650.074559865
3608.33617077
3609.49475126
650.752394317
651.67387353
49.3143503524
57.1210684064
58.092660473
-22.9848417741
-22.9979093599
-23.0133036858
58.691334765
58.8714286975
1770.82896825
1771.99726403
640.764333756
640.554901593
1771.80797189
640.581375055
1771.11923512
1770.4970053
1769.62517833
646.771798541
645.901766333
1770.16171153
1769.77746198
647.098635274
1770.91479112
1770.39983429
646.206800759
647.933259194
1770.13556729
647.500239066
1771.28330061
1771.71507952
1772.71423174
649.758467846
649.144787108
1772.46140381
648.699269696
1772.04429851
1773.48513234
1773.27312715
650.594568279
651.29531664
1773.03647029
651.267190166
1773.74418334
1773.89530813
1774.35565035
651.944599863
651.522126086
1774.25588331
651.668222708
1774.10823577
3623.55625992
3617.4987429
3613.77720021
3610.79212053
33.3520900418
40.4977029217
34.5357027024
39.6788070471
38.4389833035
-27.0808206445
-27.2426153363
-27.1025793727
-27.2007456948
-27.1490470436
-27.152234591
3624.86965634
3624.03476886
630.564015442
631.073267351
3626.59317476
633.75730588
3621.85422985
3619.31119438
631.357046835
631.251778298
3623.14631139
3620.10619886
3619.08573546
633.799935022
639.129067813
633.000094022
636.495014256
3615.82186604
3611.25991652
638.804818392
632.596659301
636.739105813
634.77841991
3616.32996366
3614.37506887
632.497966248
635.790918168
633.522891417
3610.0946732
3612.35226387
3609.56844395
636.281381029
635.383248046
634.210795307
635.099925467
633.404218595
634.397296751
28.4945019691
28.9008530177
31.6956325449
-23.0982037123
-23.0615335136
-23.0968818993
-23.0580821581
-23.0152463979
-23.0818192735
-22.9710348994
-23.0292012457
30.7386506075
32.3301483832
36.8079269684
34.5343345065
37.2640105821
-23.0588431505
-23.0046494716
-23.0583865084
-23.0079615681
44.0065393594
40.4303223637
43.7598947044
-22.9028109158
-22.8683963513
-22.9331500554
-22.8702785151
36.793027781
36.3277098392
-23.0779422905
-23.0421007431
-23.0653366904
42.9224260181
38.9890264012
42.0154660071
-23.0026124488
-22.9674827988
-23.0404704906
-23.0147954431
1789.27697797
1791.13800541
628.211988504
630.728288514
1791.31683382
628.297773074
1789.21793729
1789.00032741
1790.27881752
630.975850871
628.59586601
1791.05452766
1788.30719687
628.43339466
1794.12273457
1791.94461533
633.764184098
636.557338787
1792.87804335
1793.02715815
636.57883868
1786.17129434
1789.10194909
629.070270401
631.490428325
1787.33032278
1787.7323096
629.362961405
1784.98840067
1785.04093348
631.420247818
629.581330805
1786.30482926
1783.84401218
629.536914216
1789.1997453
1790.47775011
636.139553576
633.711584398
1791.13771771
1788.84445313
635.738833026
1788.59133372
1788.91021692
638.221791809
638.27896378
1790.67229292
1786.92222117
637.427413718
1787.38697694
1785.78599879
633.361956906
634.497306198
1787.19424734
1785.87928247
635.09764092
1786.78287692
1783.94557628
637.297204211
635.691494882
1785.22521979
1785.30068639
636.486675644
1779.3921364
1785.44752408
637.330522353
638.113482698
1780.44151357
1783.76858723
637.10640926
1774.5592339
1769.66125429
634.667707481
633.330356353
1774.97271804
635.08688696
1769.65842407
1778.78625155
1781.67717156
637.31830091
636.518673986
1782.48884054
1778.60399186
636.74534055
1774.61406278
1771.26404726
634.100485189
635.694501017
1775.07457957
635.421738323
1770.21087399
1783.49500875
1784.58228918
633.836448717
631.957749163
1784.60119652
1783.55522453
633.190754295
1782.93961862
1782.86430737
634.937996749
635.075194973
1784.03104672
1781.95627636
634.202219454
1781.84403254
1779.90242525
634.279457436
632.701178334
1780.93980602
1780.77422514
633.420913711
1778.28819356
1781.01139217
636.357147704
635.70496298
1778.44219408
1780.4413421
635.988406254
1775.73546764
1772.10782988
635.994936996
635.618549562
1775.4138698
635.934425078
1772.8738364
1777.80699383
1778.70491347
634.975150049
634.697263206
1779.62251554
1777.13522851
635.416930779
1775.65235953
1773.26329827
635.555649767
635.012792827
1775.29929134
635.615050376
1773.2350941
1774.9227403
1777.61187023
633.887362901
632.481413663
1776.21426058
1776.2177768
632.912599222
1772.87437116
634.232414159
1774.61256634
17074.765467
17075.1762405
17076.1983378
17080.3959757
17082.956003
17095.4623931
12176.9133773
12177.3014282
12178.4242453
12182.2147069
12184.4266169
12197.6297869
18287.5379769
18293.5525905
17068.3881818
17075.2141744
17080.6578407
17084.7941207
17090.7221701
17073.4223718
18289.3562144
18293.7996314
17073.1714237
17076.410227
17079.2025635
17081.2160751
17083.1755275
17097.1071121
17070.3315762
17070.8349757
17072.9522707
17075.679287
17078.3331313
17080.1734374
17081.1918815
17096.2137093
17073.2717608
17073.2863485
17074.3122428
17076.1927101
17078.5335433
17080.6570563
17082.7820526
17097.5518797
17077.9973198
17080.160505
17082.6070467
17096.2992286
13387.8353686
13393.4289722
12174.4247772
12179.6720133
12186.0844962
12193.5506075
12256.0103088
12069.0339399
13391.0284662
13395.3799639
12177.9412186
12181.4139735
12182.9181001
12184.124397
12186.8648135
12195.0261753
12171.1581373
12173.1995427
12176.3321651
12178.9152819
12180.9228881
12182.0043998
12182.1116428
12192.3887672
12175.1004678
12175.3869995
12176.8178052
12178.8892312
12181.0169989
12182.4573326
12183.6677086
12198.9218279
12180.1950338
12182.0381778
12183.772055
12198.1447235
8487.59005574
8494.09670974
7277.89372586
7281.5050756
7282.36248091
7278.31594922
7267.81924722
7208.84637642
8491.14902281
8496.78733477
7274.94373102
7280.18576327
7281.87207635
7278.84136111
7268.89263638
7261.71885221
7271.81751579
7273.79939694
7276.78678542
7279.83324077
7281.02890975
7279.17912774
7271.95489787
7290.44963796
7277.72641493
7276.78241056
7277.10528376
7278.11589956
7279.68565474
7281.01598547
7280.77283137
7277.53729466
7296.22395085
7279.20376406
7279.07951563
7279.45008143
7280.58985082
7281.25141837
7280.24835494
7297.36620499
7281.55684733
7281.27501318
7297.18980713
3590.50383337
3597.44231309
3606.09876626
3610.84088318
3613.36087357
3612.6451773
3609.90182299
3587.84204015
3590.21145994
3590.81816271
3596.73421335
3602.90007279
3608.32100052
3611.39661404
3610.57142964
3606.40274377
3594.50207712
3605.94468828
3598.13932634
3594.9387384
3597.48897083
3603.19044752
3608.07850361
3610.28359477
3610.39197018
3608.04581991
3608.28493351
3603.42366019
3602.08201747
3602.00860942
3604.3285345
3607.5994745
3609.23077991
3609.75239993
3609.59039392
3613.76686088
3605.88417713
3605.56081034
3606.45148222
3607.26405004
3608.53214238
3610.06712406
3614.86748008
3608.16743349
3610.49105211
3615.02084963
51.6990440346
55.9571157232
59.1745347826
61.4800137198
61.1438456639
61.1994347735
60.4925898177
61.1760326278
46.7500263949
51.7059938698
54.5515833149
58.7272254596
62.7626278694
63.0766390306
60.2436229679
60.2100863592
59.9483962031
57.4495344694
46.3542260566
51.8139675491
55.5008128178
57.8098762573
58.8188792182
57.0394972627
56.9933576004
58.1288704958
59.1044226406
58.0155425349
48.358325707
51.5639328271
52.3718705686
52.5446707179
53.3908526175
55.3836183105
57.3734705377
59.4320056018
58.7438689363
49.5384108118
51.2991839474
53.2761582115
56.1595916021
59.1991521876
60.4049478823
59.7263046806
59.1303912035
59.4826298658
58.7420650001
-27.0915975418
-27.3341083046
-27.3816816838
-27.3539014023
-27.0759958235
-27.0773110283
-27.0410239399
-27.0294955532
-27.1145521461
-27.3167222851
-27.3570168766
-27.5288950759
-27.4350668158
-27.2187484812
-27.0088606385
-27.2840450744
-27.0287444017
-27.0777885791
-27.1052903535
-27.3093909231
-27.5046891773
-27.1251124648
-27.1668374704
-27.0530150287
-26.9930328345
-27.0236080786
-27.1335332993
-27.0526183574
-27.1533462801
-27.3689661836
-27.1079748711
-27.1149404568
-27.026144835
-26.9992110011
-27.0250190123
-27.0248204032
-27.0482918015
-27.129490604
-27.3668098313
-27.0689972029
-27.0301738678
-27.1564163886
-27.0437431074
-27.083427993
-27.1417082269
-27.4012921657
-27.0675453323
-27.1486203436
-27.3841794043
18290.8588917
18287.814602
18290.9588171
15838.1043508
15841.5803116
15838.470948
15841.5508591
18295.5321841
18293.7496082
18295.9463933
15844.3341331
15842.0114031
15843.9024743
15844.0237038
18291.4121372
18291.6463415
18292.4565118
15840.0023043
15842.5238281
15842.0638269
15843.50854
18295.6942342
18294.0071514
18295.8519609
15844.7729526
15845.9530884
15845.4889725
15847.6645701
13390.9919276
13388.8836451
13391.5980029
10937.2996032
10940.7251802
10938.6157094
10941.6695657
13395.3196885
13393.5976494
13396.0691906
10943.3901563
10945.4181526
10944.0174588
10945.5087667
13393.4014798
13392.5394817
13394.4044525
10941.1306516
10943.8815236
10942.7386484
10944.2840282
13396.8507744
13396.3090979
13401.1430417
10945.9707271
10943.9328259
10945.8981594
10950.260769
8491.11453077
8488.85951617
8492.10528662
6038.90094123
6042.1193162
6039.85529605
6042.63470877
8496.48438237
8495.05416367
8497.64920966
6045.53479894
6048.7296836
6045.84214328
6050.19616913
8494.12963757
8492.75848767
8494.47425761
6041.12628399
6043.85475361
6042.26063359
6044.12931014
8495.06980126
8496.32772967
8499.9464081
6046.76813923
6048.29425126
6046.61612813
6050.35468016
3588.54888898
3589.11977923
631.342547299
633.703394335
3593.29164562
3590.85489291
3593.49836905
632.860515833
636.93154557
634.739320063
638.373440124
3601.91319003
3597.31077704
3601.43255151
638.931060608
648.361700119
640.687776558
649.71981945
3609.02004723
3604.90259862
3607.29828159
651.012617842
655.948352795
652.188479899
656.211731367
3612.37322384
3609.16728715
3610.78435144
657.100736683
658.142222543
656.676108436
656.762400301
3613.23145334
3611.78803742
3611.76122819
657.696085635
654.740211516
656.377387056
654.531542612
3611.99496371
3611.25283972
3610.81122575
653.49542025
652.584719238
653.721877698
652.143385736
3602.20780118
3609.7247239
3602.39840328
652.699661144
652.983075872
651.772133895
649.256813556
3578.2834141
3589.46999404
3596.33329938
657.755945866
571.133524946
650.262786722
611.589773746
3605.57234641
3599.26416086
630.266995539
630.258729353
633.865207807
634.536408609
3589.48718389
3594.4890353
3592.11794864
631.433436372
634.364382516
635.403911919
636.575842274
3593.41970953
3591.95226272
3593.62357729
635.062217526
639.035104398
636.715710963
639.695520662
3600.0474493
3596.48308304
3600.02692574
641.506961428
649.715770858
641.988131431
648.531632885
3605.69717223
3603.40314767
3606.52676229
652.485833598
655.804923351
650.431621891
652.426073015
3610.39231712
3608.9120867
3610.55998206
655.716280912
656.037832212
652.047570874
652.057804109
3611.31761603
3611.22548495
3611.13447978
655.775457036
654.638532586
652.101611039
653.280173794
3609.0989711
3610.56133612
3609.47719399
654.061541344
652.309735527
654.147885953
653.341744931
3601.30422115
3607.92482872
3605.31177915
651.696009425
648.666791032
652.382868166
649.403745724
3614.31830581
3603.29086423
3625.06930508
649.558781326
615.359271775
650.528286971
620.36627425
3601.72013424
3606.51999706
3603.5188527
634.716346296
635.451623088
635.206998842
636.002716752
3595.85150845
3601.08861703
3599.45047327
636.218215054
637.520714705
636.518045757
639.057002226
3595.61082223
3598.53004433
3598.46596678
637.833711841
640.110073029
639.806122372
641.208250366
3600.29125156
3599.39915779
3601.2281332
641.743843942
647.503303864
641.58634642
642.70761138
3605.95152563
3603.69857927
3606.1669206
648.957257484
650.984752645
643.402777696
646.041571811
3609.55213164
3607.94723932
3609.14888761
650.88966724
650.405148857
646.811363091
647.795855236
3610.53688955
3609.93554938
3610.27773676
650.478572638
652.765357365
648.054057769
650.892488118
3609.47231546
3610.28399076
3609.68645105
653.558781309
653.257814919
651.84353852
652.482676103
3606.99921347
3608.84110753
3609.14615373
652.542749956
650.285290012
652.726691011
653.145680905
3628.87872702
3611.90375976
3629.11772268
651.550197341
621.906706495
654.399755511
624.067884922
634.633536047
635.644235036
3602.64960479
3605.20367527
636.173074755
639.178170258
638.773998474
3601.74272983
3605.14572414
3604.67843177
640.034282998
641.316012489
640.107139894
641.270989456
3602.87755062
3604.29493222
3604.34896083
641.414611214
641.685525109
640.881370461
640.702814665
3606.11498195
3604.95470558
3605.96535304
642.156400927
644.85586832
641.229669167
643.341238822
3608.53936844
3606.92388055
3607.61627565
645.80016784
647.599655831
644.079178058
646.247141016
3609.57152696
3608.14468424
3608.59007376
648.046404764
650.276283552
646.809570401
649.589510858
3609.61791806
3609.07425394
3609.34598168
651.125121295
653.008721699
650.874777746
653.808064679
3610.61160821
3609.9203477
3611.46123458
653.156584931
653.507981327
654.415545337
655.148585606
3628.82970754
3614.59078198
3628.92347127
654.78727581
623.984118952
655.967148141
623.549423303
3605.44440535
3606.24358284
640.994698225
640.795741497
641.10663715
3605.9629229
3606.00087554
3605.93502797
641.344205162
643.208446095
641.918365504
643.451658375
3606.85947295
3606.07028886
3606.23015884
643.790630083
645.803904013
643.748921492
645.088647096
3607.80845465
3606.62764407
3607.27332394
646.414939461
649.303818526
645.710138497
649.015303598
3609.20783181
3608.08860091
3609.21971032
650.695899243
654.089171758
650.299716039
653.228136378
3611.8806501
3610.21068507
3612.09610014
654.823507048
655.716215451
653.948315952
654.954466624
3628.7335223
3614.79250657
3628.54278299
656.570912758
623.731882872
655.608060312
624.725835519
3607.13452118
649.166265458
3609.35695676
650.336411193
652.732574828
3612.42927862
653.288804473
654.079765569
3628.53376181
654.589127992
625.053227296
-23.0582833375
-22.989892526
-22.9826726408
-22.9240781982
49.6307821195
52.0910492546
-22.973435768
-22.9508397629
-22.8797846336
-22.8383132693
53.3861992012
53.5961995215
54.7676893671
-22.9791175077
-22.8741706325
-22.8708875536
-22.7903832535
58.2057389331
57.2308143337
59.8007701703
-22.7463661823
-22.835678451
-22.7462194937
-22.7868615023
60.3671398792
61.264556046
62.9651713054
-22.8290366257
-22.8703886573
-22.7892565128
-22.8161795622
61.457271757
63.2269634615
62.5092014654
-22.9134074401
-22.909706101
-22.8529495466
-22.8604956084
61.1522652456
61.6078478943
61.2710521884
-22.8316575386
-22.8300271293
-22.8076026629
-22.826290211
61.0554209809
61.0120728591
60.5577068456
-22.8521823259
-22.9152027119
-22.859462662
-22.9250914648
59.5634252597
60.1338469587
59.5823553143
-23.0195997662
-23.0865789641
-23.0229883826
-23.0859418497
68.4070543466
57.9348127511
65.3484558727
-23.1333421048
-23.0528422268
-23.1348993165
-23.0566413827
49.3004984763
46.914205851
49.725474014
-22.9211580139
-22.8585519335
-22.8830198449
-22.8503296922
53.5221049837
52.2261093534
54.0694095007
-22.856720891
-22.8353524992
-22.8936392476
-22.8881948139
56.1802373764
55.3408628714
56.8958600855
-22.7951272986
-22.7694909489
-22.8462977086
-22.8354154612
60.7793465509
59.040310981
60.6853800922
-22.7359773158
-22.7940500832
-22.8251318038
-22.8637630887
63.4691183528
61.768356285
61.4280061945
-22.8557032915
-22.8648186513
-22.8864416157
-22.8839077341
61.3919893617
60.4977850904
59.0562516622
-22.8969373137
-22.878972136
-22.9157461427
-22.8898774138
60.2375134665
58.1042158581
58.626033469
-22.8692613401
-22.8934991422
-22.8668286535
-22.9132040369
60.0552249587
59.1208787478
59.378873897
-22.9169277821
-22.9625271533
-22.9495839884
-22.9905323672
59.8475965285
59.5306685422
59.7085406297
-23.0311300999
-23.088394014
-23.0463801574
-23.093136187
65.0966395621
57.5858329508
64.7945154027
-23.1358420676
-23.0570730336
-23.1371184115
-23.0588713466
49.3357426912
45.3397980426
48.2090341159
-22.9761139621
-23.0241901809
-23.0186948968
-23.0779535958
53.8680034757
50.6384581231
52.6743815981
-22.9326071408
-22.8810803484
-22.992354051
-22.9329213059
56.7145526395
54.2090160353
55.0447334844
-22.8330519483
-22.79401745
-22.8801411275
-22.8320830444
58.7866335787
55.3798095083
55.3438695084
-22.7949293796
-22.8235599144
-22.8105842999
-22.8215926504
58.0604159141
55.0898531551
54.8178959847
-22.8386775073
-22.8536050311
-22.8429503523
-22.8735093924
56.4231953249
54.6778819575
54.8365935872
-22.9070288176
-22.9087112058
-22.9401225601
-22.9495036547
57.8749977157
55.9591362879
57.1901841195
-22.8987311193
-22.9207799167
-22.9338548872
-22.9468113291
58.588386962
57.600165294
58.0747694622
-22.9576544062
-23.0171551167
-22.9757102636
-23.0296260028
59.5931473442
59.1196945906
59.9064326782
-23.0665264642
-23.0997465544
-23.0729961802
-23.0992255108
64.7735483337
58.4497877116
64.6006686112
-23.1497275431
-23.0649648692
-23.1452483745
-23.0612373153
50.1750609516
47.3131007466
-23.0330504271
-22.987324065
-23.0274523322
52.284883294
48.6259900221
49.7595301169
-22.9403270053
-22.9076419765
-22.9928896387
-22.9632909645
52.3637165032
50.2533759533
50.7292717814
-22.8923791688
-22.891616497
-22.9503989192
-22.9510179399
52.8432790311
51.4051230333
52.1842386345
-22.8997573089
-22.9141795094
-22.9484353489
-22.9499954549
54.182662735
53.003201251
54.0826583454
-22.9607859544
-22.9776663103
-22.9678941601
-22.9872537226
56.4959408729
55.6510620292
57.1133090422
-22.9736498158
-22.9871796235
-23.0015271492
-23.0172636402
58.5137406693
58.2661506032
59.4312587129
-22.9997887648
-23.0337478676
-23.0156523621
-23.0373701369
60.443063587
59.9863056588
61.1789361178
-23.0696117583
-23.0914532353
-23.0642407549
-23.0842319974
64.4024225054
59.1823142936
64.3709839276
-23.1333461863
-23.0501059495
-23.1279668464
-23.0494052451
50.3836391899
50.4404635377
-23.0036645941
-22.997469143
-23.0096994078
-23.0047004594
52.3473831389
51.5517569575
52.6717516938
-22.9865974652
-22.9661173271
-22.9901300142
-22.9709659407
54.432141876
53.8240988775
55.1667710867
-22.9866421442
-22.9963046873
-22.9716970335
-22.9840576691
57.8439365228
56.6359994982
58.2044304243
-22.9878265127
-23.0035078709
-22.9807927516
-22.9922970934
60.1930133064
59.4756352686
60.3166870237
-23.0048097366
-23.0207078592
-22.9955560282
-23.0161679392
61.6901071555
60.2241751698
61.3136442813
-23.0495430443
-23.0783110886
-23.0507886856
-23.0838338199
64.6064250292
59.6091852306
64.693544542
-23.1287465345
-23.0574051515
-23.1341781007
-23.0667252998
58.1122337198
-22.9962417313
59.7133213683
-23.0093595378
-23.0322925731
-23.0301084576
-23.050265133
60.4594323114
-23.0678293196
-23.1000242386
-23.08253749
-23.1133680919
64.0054055461
-23.1421567604
-23.0708141265
-23.1493522819
-23.0796497863
1752.4417144
1753.92409562
629.611881982
631.958177734
1753.28216256
630.073910908
1753.17819328
1752.21817302
1753.36710162
632.857253615
632.30267976
1753.17692579
1752.66505785
631.105363633
1755.12537556
1754.69014809
634.352459619
633.417406145
1754.16602345
634.802501803
1755.52544505
1756.47773379
1758.26342141
635.469181126
637.433510036
1758.29522585
635.943566109
1756.58900639
1755.34669905
1754.21433765
634.145706453
635.903443084
1754.15980567
1755.38175425
635.413055321
1756.71181543
1758.40365216
637.902895692
636.830623927
1758.43335563
1756.72966898
636.364770992
1763.57196257
1760.65927423
641.779705039
639.563364162
1760.64210039
642.416586878
1763.67851989
1766.75334378
1770.29309387
645.338159256
649.009667519
1769.90959726
645.99635574
1767.01519546
1763.46703194
1760.61637514
640.117180924
643.592201201
1760.67908814
1763.28446078
643.020234409
1766.50382641
1768.64078853
649.647956831
646.840705262
1769.5157791
1765.91812402
646.582180886
1774.9337306
1773.13718423
653.16255701
651.519650094
1772.62741253
653.583822082
1775.56381458
1776.37206178
1778.12952367
654.723629062
656.266611066
1777.30582566
655.075193601
1777.12611661
1773.91386708
1770.98437265
652.085748371
654.029878832
1772.02851024
1772.6453429
653.926741433
1775.14328762
1774.73539402
656.360080701
655.432490543
1775.94336709
1773.87570815
655.377148456
1778.63392665
1778.99970067
657.956742449
657.2726307
1778.0727805
657.928282582
1779.757539
1779.12967917
1780.9768849
658.242577151
657.902057539
1779.45124424
658.093020169
1780.53305756
1777.47880982
1775.63871098
657.127757315
656.881840532
1776.7964714
1776.55438639
657.545014483
1778.05667178
1777.85118316
657.381809013
656.994696457
1778.39251757
1777.32030178
657.540126475
1778.80119185
1780.85502322
656.973244171
657.361620432
1779.42854447
656.675928228
1779.96102755
1777.81681968
1777.05984888
655.89701695
654.680720059
1776.43825798
655.776811625
1778.6705766
1778.11236345
1778.04365212
656.851416517
655.958534389
1778.45690296
1777.86239444
656.380351664
1777.41781888
1776.45860217
654.658869759
655.378644008
1776.31132804
1777.32555303
655.663044439
1774.33647742
1775.5760577
652.889682868
653.530665899
1775.18066532
652.926209956
1774.64712049
1773.99347904
1774.87117113
652.714403401
652.476875293
1773.93880391
652.660360757
1774.51927856
1774.43362374
1775.59495671
653.670092255
653.031794602
1775.2527292
1774.86046977
652.935773647
1773.93197233
1773.48125206
652.214549736
652.535210529
1773.56668874
1774.18725854
652.529306384
1773.03213906
1775.06886101
652.496633728
652.378969408
1773.64372911
651.891316951
1774.94889762
1771.62562092
1770.50593108
652.273096906
651.407789643
1768.95624859
651.263361441
1773.572346
1771.80657297
1772.42459
651.998699454
650.971857535
1772.86509137
1770.95568479
651.329736879
1769.98813492
1765.94557085
650.272077903
649.862694267
1767.07730496
1768.8143243
650.46719745
1756.48047387
1764.74109382
675.907324985
653.732260904
1763.71958882
663.923609878
1755.65558554
1742.49516332
1741.12507727
729.354334202
626.665429762
686.406154014
1755.27653505
1737.61423702
1755.192836
1761.53350091
652.137662971
655.610788274
1762.21830637
1755.12563502
659.16027235
1739.80892767
1766.95515138
601.385138245
663.852591346
1741.13901128
670.445850891
1759.88868598
1762.75665728
1765.55603877
629.053368511
631.44857523
1762.22944697
630.66345659
1765.79733067
1760.18898756
1756.59891352
629.218167167
631.781077551
1759.13303549
1758.2709329
630.84886714
1763.65365344
1767.89568998
632.794831476
633.754682109
1765.04915608
632.431435756
1766.52309108
1761.35230415
1761.07759025
633.285003143
634.054957027
1759.62168279
1762.76608431
632.688735529
1755.31660493
1754.52612884
632.273542591
632.961220028
1753.55749428
1756.49032143
633.64216933
1754.70054608
1753.53048531
633.436693905
635.066417331
1753.34231592
1754.41739181
634.465225405
1756.85444227
1759.55067822
634.28319978
635.911839508
1758.08342903
1758.25954484
634.872314869
1755.95403826
1756.1567489
635.747081435
636.266979529
1755.19531265
1757.14823813
635.388262399
1755.27529869
1754.16723263
636.071956694
635.413585752
1755.16895297
1754.67102142
636.398292941
1756.28508828
1758.10914029
637.211683806
639.411793476
1756.39759229
1757.92758315
637.470760534
1755.7271601
1755.84860299
635.812329099
637.088058234
1755.23780185
1756.21353631
636.436313054
1756.60266179
1758.56994563
639.538424266
637.811910882
1757.79988376
1757.26379645
637.582388103
1761.85707454
1760.12320196
644.267365504
641.965534232
1762.37062316
1759.83472284
644.568947297
1764.08985874
1767.41898716
647.03497285
649.481730738
1764.82969065
1766.50014418
647.02506715
1761.36783689
1759.88629952
641.983376227
644.273956669
1759.22619782
1761.54723017
644.46589011
1763.6343808
1765.84759994
649.137400682
646.516509692
1765.9848149
1763.66352975
646.881763574
1770.49829572
1769.72199325
654.25365964
652.059238128
1771.46058252
1768.747113
653.751447878
1772.00504799
1773.91687933
655.462663848
654.895615657
1772.83025162
1773.29770791
654.767702453
1770.03369398
1767.93747968
651.39343745
651.623735068
1768.17353973
1769.87904352
652.922262836
1771.66885558
1772.99824428
653.795589816
652.392263734
1773.03669308
1771.51137076
653.780876471
1776.01150841
1774.99835909
655.838023701
654.577302104
1776.19710409
1774.59883568
654.658468199
1777.21726182
1777.88766088
656.002592718
654.950614793
1777.24808848
1777.85338784
654.863858364
1775.85086922
1774.27367177
653.429601388
651.938214436
1774.43118364
1775.49330478
653.460224069
1777.02537041
1777.02344122
653.588526275
652.003097312
1777.60713038
1776.46203101
653.530133164
1777.70238342
1777.98838926
655.482207148
654.805852401
1777.76425659
1777.92240611
654.614194428
1777.37694764
1776.77233122
655.10312201
654.334979768
1777.36949945
1777.0981658
654.428447295
1777.57087423
1777.23483247
653.497396384
652.421577497
1777.67820006
1777.39941208
653.366011927
1777.3481996
1777.55720467
653.789352738
652.709580062
1777.23735298
1777.42736891
653.435485743
1776.19516658
1776.13412379
653.457446007
654.209013687
1775.43825244
1776.77054478
653.846029279
1775.26388291
1773.54481546
652.877053531
652.595391732
1774.5779457
1773.97128904
653.259133471
1776.79217018
1777.49046405
654.329266315
654.428428928
1777.10435285
1777.23327308
654.363852577
1775.99574583
1775.36060235
653.011601821
654.010409146
1774.65909273
1776.62079952
653.834651648
1770.40847042
1772.17043644
650.691852687
651.756334296
1770.34918606
1772.41265438
650.57292926
1768.10478881
1765.54183577
649.408093501
648.450812401
1768.04936352
1765.93920968
649.175016224
1771.00178182
1773.751353
651.984418662
651.206157159
1773.02600275
1771.8652662
650.750619243
1768.90013347
1768.22160487
648.919159679
649.929600691
1766.95932032
1769.99104928
649.508470087
1758.13755516
1762.206722
654.682254668
649.358058916
1756.77788012
1763.17349112
654.308478413
1746.46374999
1772.08260561
661.946797265
616.969770921
1744.71651105
661.292375167
1774.88397807
1759.76918465
1765.87617941
649.949599188
655.60270292
1764.48998225
1761.1426606
654.984218089
1748.24523207
1777.44030026
618.619103282
662.098218964
1749.33677182
661.536940741
1776.60162033
1767.6489298
1769.05506206
634.714099965
635.237061177
1766.3665356
635.32276675
1770.14595142
1765.48980233
1762.34147757
635.03966452
636.020543697
1764.10971203
1763.7053973
635.625272753
1768.63433891
1771.28646056
635.459208317
635.498731352
1769.33961848
635.628772882
1770.88327301
1766.60127589
1766.02018242
636.143973285
635.762606203
1764.87056668
1767.53392767
635.864896536
1761.12833353
1760.8904651
636.752524629
636.680667171
1759.64171462
1762.2587426
637.226084676
1760.18578092
1757.49769218
637.106897478
638.257797418
1758.50196839
1759.36564182
637.700624768
1762.6898003
1764.96393549
636.691474325
637.322909684
1763.57457071
1764.37762681
637.371942509
1761.99505521
1763.72426796
638.782241687
638.194710902
1761.43275922
1763.99432039
638.065342587
1758.78948769
1757.03267748
638.226868271
638.751073668
1757.15160325
1758.90434995
639.267900922
1759.11971518
1758.86418083
638.900085127
640.637146512
1757.77903654
1759.88013308
639.83019218
1760.83537452
1763.55000825
639.416620461
640.372614112
1761.06419115
1763.38893626
639.935263876
1760.89611798
1763.54770097
640.959385406
640.851703874
1761.27950557
1763.38740301
640.409313754
1762.60010074
1760.19267714
643.730710846
641.689739681
1762.08965991
1761.01430621
643.297258525
1764.29565223
1765.89513947
645.790462127
646.338261255
1764.02021863
1766.14763222
644.969705515